  -1.2000000000000000          0.0000000000000000     
  -1.1899999999999999          0.0000000000000000     
  -1.1799999999999999          0.0000000000000000     
  -1.1699999999999999          0.0000000000000000     
  -1.1599999999999999          0.0000000000000000     
  -1.1499999999999999          0.0000000000000000     
  -1.1399999999999999          0.0000000000000000     
  -1.1299999999999999          0.0000000000000000     
  -1.1199999999999999          0.0000000000000000     
  -1.1099999999999999          0.0000000000000000     
  -1.0999999999999999          0.0000000000000000     
  -1.0899999999999999          0.0000000000000000     
  -1.0800000000000001          0.0000000000000000     
  -1.0699999999999998          0.0000000000000000     
  -1.0600000000000001          0.0000000000000000     
  -1.0500000000000000          0.0000000000000000     
  -1.0400000000000000          0.0000000000000000     
  -1.0300000000000000          0.0000000000000000     
  -1.0200000000000000          0.0000000000000000     
  -1.0100000000000000          0.0000000000000000     
  -1.0000000000000000          0.0000000000000000     
 -0.98999999999999999          0.0000000000000000     
 -0.97999999999999998          0.0000000000000000     
 -0.96999999999999997          0.0000000000000000     
 -0.95999999999999996          0.0000000000000000     
 -0.94999999999999996          0.0000000000000000     
 -0.93999999999999995          0.0000000000000000     
 -0.92999999999999994          0.0000000000000000     
 -0.91999999999999993          0.0000000000000000     
 -0.90999999999999992          0.0000000000000000     
 -0.89999999999999991          0.0000000000000000     
 -0.88999999999999990          0.0000000000000000     
 -0.87999999999999989          0.0000000000000000     
 -0.86999999999999988          0.0000000000000000     
 -0.85999999999999988          0.0000000000000000     
 -0.84999999999999987          0.0000000000000000     
 -0.83999999999999986          0.0000000000000000     
 -0.82999999999999996          0.0000000000000000     
 -0.81999999999999995          0.0000000000000000     
 -0.80999999999999994          0.0000000000000000     
 -0.79999999999999993          0.0000000000000000     
 -0.78999999999999992          0.0000000000000000     
 -0.77999999999999992          0.0000000000000000     
 -0.76999999999999991          0.0000000000000000     
 -0.76000000000000001          0.0000000000000000     
 -0.75000000000000000          0.0000000000000000     
 -0.73999999999999999          0.0000000000000000     
 -0.72999999999999998          0.0000000000000000     
 -0.71999999999999997          0.0000000000000000     
 -0.70999999999999996          0.0000000000000000     
 -0.69999999999999996          0.0000000000000000     
 -0.68999999999999995          0.0000000000000000     
 -0.67999999999999994          0.0000000000000000     
 -0.66999999999999993          0.0000000000000000     
 -0.65999999999999992          0.0000000000000000     
 -0.64999999999999991          0.0000000000000000     
 -0.63999999999999990          0.0000000000000000     
 -0.62999999999999989          0.0000000000000000     
 -0.61999999999999988          0.0000000000000000     
 -0.60999999999999988          0.0000000000000000     
 -0.59999999999999998          0.0000000000000000     
 -0.58999999999999997          0.0000000000000000     
 -0.57999999999999996          0.0000000000000000     
 -0.56999999999999995          0.0000000000000000     
 -0.55999999999999994          0.0000000000000000     
 -0.54999999999999993          0.0000000000000000     
 -0.53999999999999992          0.0000000000000000     
 -0.52999999999999992          0.0000000000000000     
 -0.51999999999999991          0.0000000000000000     
 -0.50999999999999990          0.0000000000000000     
 -0.49999999999999989          0.0000000000000000     
 -0.48999999999999988          0.0000000000000000     
 -0.47999999999999987          0.0000000000000000     
 -0.46999999999999997          0.0000000000000000     
 -0.45999999999999996          0.0000000000000000     
 -0.44999999999999996          0.0000000000000000     
 -0.43999999999999995          0.0000000000000000     
 -0.42999999999999994          0.0000000000000000     
 -0.41999999999999993          0.0000000000000000     
 -0.40999999999999992          0.0000000000000000     
 -0.39999999999999991          0.0000000000000000     
 -0.38999999999999990          0.0000000000000000     
 -0.37999999999999989          0.0000000000000000     
 -0.36999999999999988          0.0000000000000000     
 -0.35999999999999988          0.0000000000000000     
 -0.34999999999999987          0.0000000000000000     
 -0.33999999999999986          0.0000000000000000     
 -0.32999999999999985          0.0000000000000000     
 -0.32000000000000006          0.0000000000000000     
 -0.31000000000000005          0.0000000000000000     
 -0.30000000000000004          0.0000000000000000     
 -0.29000000000000004          0.0000000000000000     
 -0.28000000000000003          0.0000000000000000     
 -0.27000000000000002          0.0000000000000000     
 -0.26000000000000001          0.0000000000000000     
 -0.25000000000000000          0.0000000000000000     
 -0.23999999999999999          0.0000000000000000     
 -0.22999999999999998          0.0000000000000000     
 -0.21999999999999997          0.0000000000000000     
 -0.20999999999999996          0.0000000000000000     
 -0.19999999999999996          0.0000000000000000     
 -0.18999999999999995          0.0000000000000000     
 -0.17999999999999994          0.0000000000000000     
 -0.16999999999999993          0.0000000000000000     
 -0.15999999999999992          0.0000000000000000     
 -0.14999999999999991          0.0000000000000000     
 -0.13999999999999990          0.0000000000000000     
 -0.12999999999999989          0.0000000000000000     
 -0.11999999999999988          0.0000000000000000     
 -0.10999999999999988          0.0000000000000000     
  -9.9999999999999867E-002     0.0000000000000000     
  -8.9999999999999858E-002     0.0000000000000000     
  -7.9999999999999849E-002     0.0000000000000000     
  -6.9999999999999840E-002     0.0000000000000000     
  -5.9999999999999831E-002     0.0000000000000000     
  -4.9999999999999822E-002     0.0000000000000000     
  -3.9999999999999813E-002     0.0000000000000000     
  -2.9999999999999805E-002     0.0000000000000000     
  -1.9999999999999796E-002     0.0000000000000000     
  -9.9999999999997868E-003     0.0000000000000000     
   0.0000000000000000          0.0000000000000000     
   1.0000000000000009E-002     0.0000000000000000     
   2.0000000000000018E-002     0.0000000000000000     
   3.0000000000000027E-002     0.0000000000000000     
   4.0000000000000036E-002     0.0000000000000000     
   5.0000000000000044E-002     0.0000000000000000     
   6.0000000000000053E-002     0.0000000000000000     
   7.0000000000000062E-002     0.0000000000000000     
   8.0000000000000071E-002     0.0000000000000000     
   9.0000000000000080E-002     0.0000000000000000     
  0.10000000000000009          0.0000000000000000     
  0.11000000000000010          0.0000000000000000     
  0.12000000000000011          0.0000000000000000     
  0.13000000000000012          0.0000000000000000     
  0.14000000000000012          0.0000000000000000     
  0.15000000000000013          0.0000000000000000     
  0.16000000000000014          0.0000000000000000     
  0.17000000000000015          0.0000000000000000     
  0.18000000000000016          0.0000000000000000     
  0.19000000000000017          0.0000000000000000     
  0.20000000000000018          0.0000000000000000     
  0.21000000000000019          0.0000000000000000     
  0.22000000000000020          0.0000000000000000     
  0.23000000000000020          0.0000000000000000     
  0.24000000000000021          0.0000000000000000     
  0.25000000000000000          0.0000000000000000     
  0.26000000000000001          0.0000000000000000     
  0.27000000000000002          0.0000000000000000     
  0.28000000000000003          0.0000000000000000     
  0.29000000000000004          0.0000000000000000     
  0.30000000000000004          0.0000000000000000     
  0.31000000000000005          0.0000000000000000     
  0.32000000000000006          0.0000000000000000     
  0.33000000000000007          0.0000000000000000     
  0.34000000000000008          0.0000000000000000     
  0.35000000000000009          0.0000000000000000     
  0.36000000000000010          0.0000000000000000     
  0.37000000000000011          0.0000000000000000     
  0.38000000000000012          0.0000000000000000     
  0.39000000000000012          0.0000000000000000     
  0.40000000000000013          0.0000000000000000     
  0.41000000000000014          0.0000000000000000     
  0.42000000000000015          0.0000000000000000     
  0.43000000000000016          0.0000000000000000     
  0.44000000000000017          0.0000000000000000     
  0.45000000000000018          0.0000000000000000     
  0.46000000000000019          0.0000000000000000     
  0.47000000000000020          0.0000000000000000     
  0.48000000000000020          0.0000000000000000     
  0.49000000000000021          0.0000000000000000     
  0.50000000000000022          0.0000000000000000     
  0.51000000000000023          0.0000000000000000     
  0.52000000000000024          0.0000000000000000     
  0.53000000000000025          0.0000000000000000     
  0.54000000000000026          0.0000000000000000     
  0.55000000000000027          0.0000000000000000     
  0.55999999999999983          0.0000000000000000     
  0.57000000000000006          0.0000000000000000     
  0.57999999999999985          0.0000000000000000     
  0.59000000000000008          0.0000000000000000     
  0.59999999999999987          0.0000000000000000     
  0.61000000000000010          0.0000000000000000     
  0.61999999999999988          0.0000000000000000     
  0.63000000000000012          0.0000000000000000     
  0.63999999999999990          0.0000000000000000     
  0.65000000000000013          0.0000000000000000     
  0.65999999999999992          0.0000000000000000     
  0.67000000000000015          0.0000000000000000     
  0.67999999999999994          0.0000000000000000     
  0.69000000000000017          0.0000000000000000     
  0.69999999999999996          0.0000000000000000     
  0.71000000000000019          0.0000000000000000     
  0.71999999999999997          0.0000000000000000     
  0.73000000000000020          0.0000000000000000     
  0.73999999999999999          0.0000000000000000     
  0.75000000000000022          0.0000000000000000     
  0.76000000000000001          0.0000000000000000     
  0.77000000000000024          0.0000000000000000     
  0.78000000000000003          0.0000000000000000     
  0.79000000000000026          0.0000000000000000     
  0.80000000000000004          0.0000000000000000     
  0.81000000000000028          0.0000000000000000     
  0.82000000000000006          0.0000000000000000     
  0.83000000000000029          0.0000000000000000     
  0.84000000000000008          0.0000000000000000     
  0.85000000000000031          0.0000000000000000     
  0.86000000000000010          0.0000000000000000     
  0.87000000000000033          0.0000000000000000     
  0.88000000000000012          0.0000000000000000     
  0.88999999999999990          0.0000000000000000     
  0.90000000000000013          0.0000000000000000     
  0.90999999999999992          0.0000000000000000     
  0.92000000000000015          0.0000000000000000     
  0.92999999999999994          0.0000000000000000     
  0.94000000000000017          0.0000000000000000     
  0.94999999999999996          0.0000000000000000     
  0.96000000000000019          0.0000000000000000     
  0.96999999999999997          0.0000000000000000     
  0.98000000000000020          0.0000000000000000     
  0.98999999999999999          0.0000000000000000     
   1.0000000000000002          0.0000000000000000     
   1.0100000000000000          0.0000000000000000     
   1.0200000000000002          0.0000000000000000     
   1.0300000000000000          0.0000000000000000     
   1.0400000000000003          0.0000000000000000     
   1.0500000000000000          0.0000000000000000     
   1.0600000000000003          0.0000000000000000     
   1.0700000000000001          0.0000000000000000     
   1.0800000000000003          0.0000000000000000     
   1.0900000000000001          0.0000000000000000     
   1.1000000000000003          0.0000000000000000     
   1.1100000000000001          0.0000000000000000     
   1.1200000000000003          0.0000000000000000     
   1.1300000000000001          0.0000000000000000     
   1.1400000000000003          0.0000000000000000     
   1.1500000000000001          0.0000000000000000     
   1.1600000000000004          0.0000000000000000     
   1.1700000000000002          0.0000000000000000     
   1.1800000000000004          0.0000000000000000     
   1.1900000000000002          0.0000000000000000     
   1.2000000000000000          0.0000000000000000     
   1.2100000000000002          0.0000000000000000     
   1.2200000000000000          0.0000000000000000     
   1.2299999999999998          0.0000000000000000     
   1.2400000000000000          0.0000000000000000     
   1.2500000000000002          0.0000000000000000     
   1.2600000000000000          0.0000000000000000     
   1.2699999999999998          0.0000000000000000     
   1.2800000000000000          0.0000000000000000     
   1.2900000000000003          0.0000000000000000     
   1.3000000000000000          0.0000000000000000     
   1.3099999999999998          0.0000000000000000     
   1.3200000000000001          0.0000000000000000     
   1.3300000000000003          0.0000000000000000     
   1.3400000000000001          0.0000000000000000     
   1.3499999999999999          0.0000000000000000     
   1.3600000000000001          0.0000000000000000     
   1.3700000000000003          0.0000000000000000     
   1.3800000000000001          0.0000000000000000     
   1.3899999999999999          0.0000000000000000     
   1.4000000000000001          0.0000000000000000     
   1.4100000000000004          0.0000000000000000     
   1.4200000000000002          0.0000000000000000     
   1.4299999999999999          0.0000000000000000     
   1.4400000000000002          0.0000000000000000     
   1.4500000000000004          0.0000000000000000     
   1.4600000000000002          0.0000000000000000     
   1.4700000000000000          0.0000000000000000     
   1.4800000000000002          0.0000000000000000     
   1.4900000000000004          0.0000000000000000     
   1.5000000000000002          0.0000000000000000     
   1.5100000000000000          0.0000000000000000     
   1.5200000000000002          0.0000000000000000     
   1.5300000000000005          0.0000000000000000     
   1.5400000000000003          0.0000000000000000     
   1.5500000000000000          0.0000000000000000     
   1.5600000000000003          0.0000000000000000     
   1.5700000000000005          0.0000000000000000     
   1.5800000000000003          0.0000000000000000     
   1.5900000000000001          0.0000000000000000     
   1.6000000000000003          0.0000000000000000     
   1.6100000000000005          0.0000000000000000     
   1.6200000000000003          0.0000000000000000     
   1.6300000000000001          0.0000000000000000     
   1.6400000000000003          0.0000000000000000     
   1.6500000000000006          0.0000000000000000     
   1.6600000000000004          0.0000000000000000     
   1.6700000000000002          0.0000000000000000     
   1.6800000000000004          0.0000000000000000     
   1.6899999999999997          0.0000000000000000     
   1.7000000000000000          0.0000000000000000     
   1.7099999999999997          0.0000000000000000     
   1.7200000000000000          0.0000000000000000     
   1.7299999999999998          0.0000000000000000     
   1.7400000000000000          0.0000000000000000     
   1.7499999999999998          0.0000000000000000     
   1.7600000000000000          0.0000000000000000     
   1.7699999999999998          0.0000000000000000     
   1.7800000000000000          0.0000000000000000     
   1.7899999999999998          0.0000000000000000     
   1.8000000000000000          0.0000000000000000     
   1.8099999999999998          0.0000000000000000     
   1.8200000000000001          0.0000000000000000     
   1.8299999999999998          0.0000000000000000     
   1.8400000000000001          0.0000000000000000     
   1.8499999999999999          0.0000000000000000     
   1.8600000000000001          0.0000000000000000     
   1.8699999999999999          0.0000000000000000     
   1.8800000000000001          0.0000000000000000     
   1.8899999999999999          0.0000000000000000     
   1.9000000000000001          0.0000000000000000     
   1.9099999999999999          0.0000000000000000     
   1.9200000000000002          0.0000000000000000     
   1.9299999999999999          0.0000000000000000     
   1.9400000000000002          0.0000000000000000     
   1.9500000000000000          0.0000000000000000     
   1.9600000000000002          0.0000000000000000     
   1.9700000000000000          0.0000000000000000     
   1.9800000000000002          0.0000000000000000     
   1.9900000000000000          0.0000000000000000     
   2.0000000000000000          0.0000000000000000     
   2.0099999999999998          0.0000000000000000     
   2.0200000000000005          0.0000000000000000     
   2.0300000000000002          0.0000000000000000     
   2.0400000000000000          0.0000000000000000     
   2.0499999999999998          0.0000000000000000     
   2.0600000000000005          0.0000000000000000     
   2.0700000000000003          0.0000000000000000     
   2.0800000000000001          0.0000000000000000     
   2.0899999999999999          0.0000000000000000     
   2.1000000000000005          0.0000000000000000     
   2.1100000000000003          0.0000000000000000     
   2.1200000000000001          0.0000000000000000     
   2.1299999999999999          0.0000000000000000     
   2.1400000000000006          0.0000000000000000     
   2.1500000000000004          0.0000000000000000     
   2.1600000000000001          0.0000000000000000     
   2.1699999999999999          0.0000000000000000     
   2.1800000000000006          0.0000000000000000     
   2.1900000000000004          0.0000000000000000     
   2.2000000000000002          0.0000000000000000     
   2.2100000000000000          0.0000000000000000     
   2.2200000000000006          0.0000000000000000     
   2.2300000000000004          0.0000000000000000     
   2.2400000000000002          0.0000000000000000     
   2.2500000000000000          0.0000000000000000     
   2.2600000000000007          3.9115547245186922E-032
   2.2700000000000005         -2.5279130616834480E-031
   2.2800000000000002         -7.9523142632563214E-031
   2.2900000000000000          5.0827082685769807E-031
   2.3000000000000007         -1.4927723131713753E-030
   2.3100000000000005          1.5652494392216069E-030
   2.3199999999999994          4.1086066629036725E-030
   2.3300000000000001         -3.3154771145168586E-030
   2.3399999999999999         -4.4606203892800108E-030
   2.3499999999999996          1.4028445126894014E-029
   2.3599999999999994          5.2337892536576584E-029
   2.3700000000000001          9.1029349655361132E-029
   2.3799999999999999          1.5064527728499739E-028
   2.3899999999999997          2.4535817860758678E-028
   2.3999999999999995          3.8744984730470145E-028
   2.4100000000000001          5.9938796544044415E-028
   2.4199999999999999          9.0550215600090260E-028
   2.4299999999999997          1.3440081894641909E-027
   2.4399999999999995          1.9719334774108471E-027
   2.4500000000000002          2.8745686940965349E-027
   2.4600000000000000          4.1480544327116179E-027
   2.4699999999999998          5.9480955810979932E-027
   2.4799999999999995          8.4823632392289921E-027
   2.4900000000000002          1.2037170774869088E-026
   2.5000000000000000          1.6995672320804398E-026
   2.5099999999999998          2.3895308642851893E-026
   2.5199999999999996          3.3459929725401826E-026
   2.5300000000000002          4.6690680175865348E-026
   2.5400000000000000          6.4927677516329496E-026
   2.5499999999999998          9.0057433297823743E-026
   2.5599999999999996          1.2452651333622955E-025
   2.5700000000000003          1.7171326376196247E-025
   2.5800000000000001          2.3616959688742241E-025
   2.5899999999999999          3.2405308976782842E-025
   2.5999999999999996          4.4353773421380596E-025
   2.6100000000000003          6.0551227590773380E-025
   2.6200000000000001          8.2488990839568559E-025
   2.6299999999999999          1.1209025182050772E-024
   2.6399999999999997          1.5200287639615244E-024
   2.6500000000000004          2.0563300325268532E-024
   2.6600000000000001          2.7764048306105348E-024
   2.6699999999999999          3.7395308290364310E-024
   2.6799999999999997          5.0264587882913591E-024
   2.6900000000000004          6.7414475238377227E-024
   2.7000000000000002          9.0226904779130438E-024
   2.7100000000000000          1.2048741188818215E-023
   2.7199999999999998          1.6055364148713923E-023
   2.7300000000000004          2.1351904061834442E-023
   2.7400000000000002          2.8325720031635877E-023
   2.7500000000000000          3.7510866157787420E-023
   2.7599999999999998          4.9551714004387993E-023
   2.7700000000000005          6.5342831837958223E-023
   2.7800000000000002          8.5950106425527396E-023
   2.7900000000000000          1.1285733148727468E-022
   2.7999999999999998          1.4784808366458133E-022
   2.8099999999999996          1.9326471186610199E-022
   2.8200000000000003          2.5213418267025280E-022
   2.8300000000000001          3.2814942534252471E-022
   2.8399999999999999          4.2628599387142561E-022
   2.8500000000000005          5.5246339951553812E-022
   2.8600000000000003          7.1470131583330939E-022
   2.8700000000000001          9.2232041840985155E-022
   2.8799999999999999          1.1877589611277102E-021
   2.8899999999999997          1.5262895940345517E-021
   2.9000000000000004          1.9571224559459264E-021
   2.9100000000000001          2.5042254888125025E-021
   2.9199999999999999          3.1976383139567046E-021
   2.9300000000000006          4.0739246974443988E-021
   2.9400000000000004          5.1790190126664205E-021
   2.9500000000000002          6.5696194822931648E-021
   2.9600000000000000          8.3160602883018637E-021
   2.9699999999999998          1.0505079880530512E-020
   2.9799999999999995          1.3239615393215079E-020
   2.9899999999999993          1.6648536557471210E-020
   3.0000000000000000          2.0890472219420856E-020
   3.0099999999999998          2.6158892169521926E-020
   3.0199999999999996          3.2686465188861968E-020
   3.0299999999999994          4.0747194855349173E-020
   3.0400000000000000          5.0685346631344720E-020
   3.0499999999999998          6.2900416440969046E-020
   3.0599999999999996          7.7899230123995607E-020
   3.0699999999999994          9.6264843383523451E-020
   3.0800000000000001          1.1868538647866573E-019
   3.0899999999999999          1.4602736341281443E-019
   3.0999999999999996          1.7925980981122688E-019
   3.1099999999999994          2.1956682179607567E-019
   3.1200000000000001          2.6834579176529842E-019
   3.1299999999999999          3.2717932302586222E-019
   3.1399999999999997          3.9806358334161652E-019
   3.1499999999999995          4.8313644685509876E-019
   3.1600000000000001          5.8510082961540253E-019
   3.1699999999999999          7.0703345576031296E-019
   3.1799999999999997          8.5248453278011935E-019
   3.1899999999999995          1.0254144463513608E-018
   3.2000000000000002          1.2307590348879294E-018
   3.2100000000000000          1.4739868411182015E-018
   3.2199999999999998          1.7610853085085658E-018
   3.2299999999999995          2.0991486481850066E-018
   3.2400000000000002          2.4962042344020449E-018
   3.2500000000000000          2.9615621917491180E-018
   3.2599999999999998          3.5052696627414482E-018
   3.2699999999999996          4.1393375166684585E-018
   3.2800000000000002          4.8777397292083137E-018
   3.2900000000000000          5.7335734645898720E-018
   3.2999999999999998          6.7230613889865234E-018
   3.3099999999999996          7.8636685938517125E-018
   3.3200000000000003          9.1746737641319065E-018
   3.3300000000000001          1.0682092143682204E-017
   3.3399999999999999          1.2411322313211047E-017
   3.3499999999999996          1.4379264399813505E-017
   3.3600000000000003          1.6616516641528527E-017
   3.3700000000000001          1.9163887166695805E-017
   3.3799999999999999          2.2047969832008919E-017
   3.3899999999999997          2.5293585018928134E-017
   3.4000000000000004          2.8940154501086503E-017
   3.4100000000000001          3.3038166074351812E-017
   3.4199999999999999          3.7617911092755754E-017
   3.4299999999999997          4.2736954709487118E-017
   3.4400000000000004          4.8410126618567755E-017
   3.4500000000000002          5.4700659814743669E-017
   3.4600000000000000          6.1664336049802986E-017
   3.4699999999999998          6.9325160105121995E-017
   3.4800000000000004          7.7730790818873551E-017
   3.4900000000000002          8.6929052465353020E-017
   3.5000000000000000          9.6909059347699203E-017
   3.5099999999999998          1.0772488922563837E-016
   3.5200000000000005          1.1942317523338380E-016
   3.5300000000000002          1.3209292200484622E-016
   3.5400000000000000          1.4573725959146351E-016
   3.5499999999999998          1.6019853398592797E-016
   3.5600000000000005          1.7571023511410617E-016
   3.5700000000000003          1.9206331789159371E-016
   3.5800000000000001          2.0925161485974339E-016
   3.5899999999999999          2.2734427831776465E-016
   3.5999999999999996          2.4623245129704551E-016
   3.6099999999999994          2.6600362965405937E-016
   3.6200000000000001          2.8609490705579655E-016
   3.6299999999999999          3.0688458959232450E-016
   3.6399999999999997          3.2799635640704591E-016
   3.6499999999999995          3.4971385765817254E-016
   3.6599999999999993          3.7113987369632529E-016
   3.6699999999999999          3.9278235959206071E-016
   3.6799999999999997          4.1344183728272792E-016
   3.6899999999999995          4.3328228705295942E-016
   3.7000000000000002          4.5246340108309226E-016
   3.7100000000000000          4.7098944100764230E-016
   3.7199999999999998          4.8829877104302074E-016
   3.7299999999999995          5.0283216235201002E-016
   3.7399999999999993          5.1542431296457006E-016
   3.7500000000000000          5.2558632605145751E-016
   3.7599999999999998          5.3312640158967848E-016
   3.7699999999999996          5.3741556467633744E-016
   3.7800000000000002          5.3813887787373341E-016
   3.7900000000000000          5.3533604585126893E-016
   3.7999999999999998          5.2840472230432779E-016
   3.8099999999999996          5.1600315410489997E-016
   3.8199999999999994          4.9837211036824250E-016
   3.8300000000000001          4.7636021222838580E-016
   3.8399999999999999          4.4889463951807308E-016
   3.8499999999999996          4.1582536152652192E-016
   3.8600000000000003          3.7553107778334879E-016
   3.8700000000000001          3.2925401504526133E-016
   3.8799999999999999          2.7715553308871148E-016
   3.8899999999999997          2.1922454107604612E-016
   3.8999999999999995          1.5824748623615630E-016
   3.9100000000000001          9.0425167720255343E-017
   3.9199999999999999          1.6448957973566111E-017
   3.9299999999999997         -7.0079138542186530E-017
   3.9400000000000004         -1.5455103445433853E-016
   3.9500000000000002         -2.4549111217974078E-016
   3.9600000000000000         -3.3797016936096529E-016
   3.9699999999999998         -4.3589083089314745E-016
   3.9799999999999995         -5.3295265395637294E-016
   3.9900000000000002         -6.3042491742210235E-016
   4.0000000000000000         -7.2855183147694093E-016
   4.0099999999999998         -8.2993648718647874E-016
   4.0200000000000005         -9.3548499804604109E-016
   4.0300000000000002         -1.0433083747041325E-015
   4.0400000000000000         -1.1488163868009042E-015
   4.0499999999999998         -1.2467715119861278E-015
   4.0599999999999996         -1.3334562285334224E-015
   4.0700000000000003         -1.4112945329795932E-015
   4.0800000000000001         -1.4926162604213472E-015
   4.0899999999999999         -1.5579713109282393E-015
   4.1000000000000005         -1.6140808909367323E-015
   4.1100000000000003         -1.6638428060385016E-015
   4.1200000000000001         -1.7116537925045074E-015
   4.1299999999999999         -1.7508568066440413E-015
   4.1399999999999997         -1.7808907950086659E-015
   4.1500000000000004         -1.7889636542707098E-015
   4.1600000000000001         -1.7893494777781842E-015
   4.1699999999999999         -1.7761605395147243E-015
   4.1800000000000006         -1.7586558625058853E-015
   4.1900000000000004         -1.7215836656242879E-015
   4.2000000000000002         -1.6680728885770896E-015
   4.2100000000000000         -1.5934283218585412E-015
   4.2199999999999998         -1.5219716695161027E-015
   4.2300000000000004         -1.4389589466742739E-015
   4.2400000000000002         -1.3492650397027399E-015