  -1.2000000000000000          0.0000000000000000     
  -1.1899999999999999          0.0000000000000000     
  -1.1799999999999999          0.0000000000000000     
  -1.1699999999999999          0.0000000000000000     
  -1.1599999999999999          0.0000000000000000     
  -1.1499999999999999          0.0000000000000000     
  -1.1399999999999999          0.0000000000000000     
  -1.1299999999999999          0.0000000000000000     
  -1.1199999999999999          0.0000000000000000     
  -1.1099999999999999          0.0000000000000000     
  -1.0999999999999999          0.0000000000000000     
  -1.0899999999999999          0.0000000000000000     
  -1.0800000000000001          0.0000000000000000     
  -1.0699999999999998          0.0000000000000000     
  -1.0600000000000001          0.0000000000000000     
  -1.0500000000000000          0.0000000000000000     
  -1.0400000000000000          0.0000000000000000     
  -1.0300000000000000          0.0000000000000000     
  -1.0200000000000000          0.0000000000000000     
  -1.0100000000000000          0.0000000000000000     
  -1.0000000000000000          0.0000000000000000     
 -0.98999999999999999          0.0000000000000000     
 -0.97999999999999998          0.0000000000000000     
 -0.96999999999999997          0.0000000000000000     
 -0.95999999999999996          0.0000000000000000     
 -0.94999999999999996          0.0000000000000000     
 -0.93999999999999995          0.0000000000000000     
 -0.92999999999999994          0.0000000000000000     
 -0.91999999999999993          0.0000000000000000     
 -0.90999999999999992          0.0000000000000000     
 -0.89999999999999991          0.0000000000000000     
 -0.88999999999999990          0.0000000000000000     
 -0.87999999999999989          0.0000000000000000     
 -0.86999999999999988          0.0000000000000000     
 -0.85999999999999988          0.0000000000000000     
 -0.84999999999999987          0.0000000000000000     
 -0.83999999999999986          0.0000000000000000     
 -0.82999999999999996          0.0000000000000000     
 -0.81999999999999995          0.0000000000000000     
 -0.80999999999999994          0.0000000000000000     
 -0.79999999999999993          0.0000000000000000     
 -0.78999999999999992          0.0000000000000000     
 -0.77999999999999992          0.0000000000000000     
 -0.76999999999999991          0.0000000000000000     
 -0.76000000000000001          0.0000000000000000     
 -0.75000000000000000          0.0000000000000000     
 -0.73999999999999999          0.0000000000000000     
 -0.72999999999999998          0.0000000000000000     
 -0.71999999999999997          0.0000000000000000     
 -0.70999999999999996          0.0000000000000000     
 -0.69999999999999996          0.0000000000000000     
 -0.68999999999999995          0.0000000000000000     
 -0.67999999999999994          0.0000000000000000     
 -0.66999999999999993          0.0000000000000000     
 -0.65999999999999992          0.0000000000000000     
 -0.64999999999999991          0.0000000000000000     
 -0.63999999999999990          0.0000000000000000     
 -0.62999999999999989          0.0000000000000000     
 -0.61999999999999988          0.0000000000000000     
 -0.60999999999999988          0.0000000000000000     
 -0.59999999999999998          0.0000000000000000     
 -0.58999999999999997          0.0000000000000000     
 -0.57999999999999996          0.0000000000000000     
 -0.56999999999999995          0.0000000000000000     
 -0.55999999999999994          0.0000000000000000     
 -0.54999999999999993          0.0000000000000000     
 -0.53999999999999992          0.0000000000000000     
 -0.52999999999999992          0.0000000000000000     
 -0.51999999999999991          0.0000000000000000     
 -0.50999999999999990          0.0000000000000000     
 -0.49999999999999989          0.0000000000000000     
 -0.48999999999999988          0.0000000000000000     
 -0.47999999999999987          0.0000000000000000     
 -0.46999999999999997          0.0000000000000000     
 -0.45999999999999996          0.0000000000000000     
 -0.44999999999999996          0.0000000000000000     
 -0.43999999999999995          0.0000000000000000     
 -0.42999999999999994          0.0000000000000000     
 -0.41999999999999993          0.0000000000000000     
 -0.40999999999999992          0.0000000000000000     
 -0.39999999999999991          0.0000000000000000     
 -0.38999999999999990          0.0000000000000000     
 -0.37999999999999989          0.0000000000000000     
 -0.36999999999999988         -8.4077907859489024E-045
 -0.35999999999999988         -1.4012984643248171E-044
 -0.34999999999999987         -2.3822073893521890E-044
 -0.33999999999999986          1.4012984643248171E-045
 -0.32999999999999985         -1.8216880036222622E-044
 -0.32000000000000006         -7.4268818609215305E-044
 -0.31000000000000005          5.7032847498020055E-043
 -0.30000000000000004          1.3975149584711401E-041
 -0.29000000000000004          6.4242528096971239E-041
 -0.28000000000000003         -8.1812148372522228E-040
 -0.27000000000000002         -4.5637936801639226E-039
 -0.26000000000000001          6.3666106776268154E-038
 -0.25000000000000000          2.8205008146608652E-037
 -0.23999999999999999          5.1953761620321982E-037
 -0.22999999999999998          9.0404126949660755E-037
 -0.21999999999999997          1.4975739914826030E-036
 -0.20999999999999996          2.3781922768883284E-036
 -0.19999999999999996          3.6952698784895199E-036
 -0.18999999999999995          5.6283902121921121E-036
 -0.17999999999999994          8.4194646559331733E-036
 -0.16999999999999993          1.2577291633217745E-035
 -0.15999999999999992          1.8812590353601403E-035
 -0.14999999999999991          2.7380360008787153E-035
 -0.13999999999999990          3.8774206346116807E-035
 -0.12999999999999989          5.6397882887019836E-035
 -0.11999999999999988          8.2713068804603743E-035
 -0.10999999999999988          1.1633896288680729E-034
  -9.9999999999999867E-002     1.6589860827806631E-034
  -8.9999999999999858E-002     2.3805645527709965E-034
  -7.9999999999999849E-002     3.3123470118329089E-034
  -6.9999999999999840E-002     4.7311585913708325E-034
  -5.9999999999999831E-002     6.6513460621833092E-034
  -4.9999999999999822E-002     9.2762419371362664E-034
  -3.9999999999999813E-002     1.3115993315742307E-033
  -2.9999999999999805E-002     1.8120647657398734E-033
  -1.9999999999999796E-002     2.5460184591383547E-033
  -9.9999999999997868E-003     3.5224235561946947E-033
   0.0000000000000000          4.8910358331517449E-033
   1.0000000000000009E-002     6.7783618083740075E-033
   2.0000000000000018E-002     9.3392533934571336E-033
   3.0000000000000027E-002     1.2899971984207726E-032
   4.0000000000000036E-002     1.7698291435122332E-032
   5.0000000000000044E-002     2.4328733442492679E-032
   6.0000000000000053E-002     3.3253503854430027E-032
   7.0000000000000062E-002     4.5506175180678075E-032
   8.0000000000000071E-002     6.1967848028103300E-032
   9.0000000000000080E-002     8.4404890737912318E-032
  0.10000000000000009          1.1451037076233035E-031
  0.11000000000000010          1.5526960294206445E-031
  0.12000000000000011          2.0983542769522910E-031
  0.13000000000000012          2.8328017367528352E-031
  0.14000000000000012          3.8133481077539618E-031
  0.15000000000000013          5.1256993883707341E-031
  0.16000000000000014          6.8726396291447022E-031
  0.17000000000000015          9.1982197852973833E-031
  0.18000000000000016          1.2283673344058895E-030
  0.19000000000000017          1.6370524897913029E-030
  0.20000000000000018          2.1773431715083377E-030
  0.21000000000000019          2.8896214661292100E-030
  0.22000000000000020          3.8275469040175442E-030
  0.23000000000000020          5.0586302886506696E-030
  0.24000000000000021          6.6728958674710565E-030
  0.25000000000000000          8.7828017744286521E-030
  0.26000000000000001          1.1537162961230212E-029
  0.27000000000000002          1.5122648683102701E-029
  0.28000000000000003          1.9781950187163214E-029
  0.29000000000000004          2.5822646008694239E-029
  0.30000000000000004          3.3637374582678339E-029
  0.31000000000000005          4.3726936375334191E-029
  0.32000000000000006          5.6722651222431928E-029
  0.33000000000000007          7.3429744415188779E-029
  0.34000000000000008          9.4856918752712020E-029
  0.35000000000000009          1.2228282921773572E-028
  0.36000000000000010          1.5730697266613562E-028
  0.37000000000000011          2.0193955653295915E-028
  0.38000000000000012          2.5869379902501010E-028
  0.39000000000000012          3.3069996222914967E-028
  0.40000000000000013          4.2186729874649507E-028
  0.41000000000000014          5.3703112051779781E-028
  0.42000000000000015          6.8219943822694679E-028
  0.43000000000000016          8.6478183400073440E-028
  0.44000000000000017          1.0939159787568031E-027
  0.45000000000000018          1.3808475700334244E-027
  0.46000000000000019          1.7393487402699170E-027
  0.47000000000000020          2.1863018061727906E-027
  0.48000000000000020          2.7422808032624533E-027
  0.49000000000000021          3.4323492060561775E-027
  0.50000000000000022          4.2869521151148364E-027
  0.51000000000000023          5.3429371925064246E-027
  0.52000000000000024          6.6448635237962628E-027
  0.53000000000000025          8.2464337395536446E-027
  0.54000000000000026          1.0212168804031476E-026
  0.55000000000000027          1.2619421767516125E-026
  0.55999999999999983          1.5560723548999689E-026
  0.57000000000000006          1.9146456897314777E-026
  0.57999999999999985          2.3507863923335669E-026
  0.59000000000000008          2.8800507381274365E-026
  0.59999999999999987          3.5208874411619653E-026
  0.61000000000000010          4.2950058919190772E-026
  0.61999999999999988          5.2280203423615404E-026
  0.63000000000000012          6.3498877853651226E-026
  0.63999999999999990          7.6957818646901570E-026
  0.65000000000000013          9.3066315190683877E-026
  0.65999999999999992          1.1230094424234061E-025
  0.67000000000000015          1.3521538138674795E-025
  0.67999999999999994          1.6244838825298115E-025
  0.69000000000000017          1.9473805515143925E-025
  0.69999999999999996          2.3293403458085186E-025
  0.71000000000000019          2.7800555309684779E-025
  0.71999999999999997          3.3106584134811362E-025
  0.73000000000000020          3.9337747121345558E-025
  0.73999999999999999          4.6637861007880144E-025
  0.75000000000000022          5.5169657938400898E-025
  0.76000000000000001          6.5116567794894338E-025
  0.77000000000000024          7.6684414248293940E-025
  0.78000000000000003          9.0104668809714179E-025
  0.79000000000000026          1.0563444096968921E-024
  0.80000000000000004          1.2356043729384096E-024
  0.81000000000000028          1.4420119981569767E-024
  0.82000000000000006          1.6790576990353570E-024
  0.83000000000000029          1.9506114299593383E-024
  0.84000000000000008          2.2608597743605417E-024
  0.85000000000000031          2.6144353179048777E-024
  0.86000000000000010          3.0163165617651961E-024
  0.87000000000000033          3.4718683517426786E-024
  0.88000000000000012          3.9869089314437828E-024
  0.88999999999999990          4.5676229703654415E-024
  0.90000000000000013          5.2205560418687260E-024
  0.90999999999999992          5.9526958758520840E-024
  0.92000000000000015          6.7713698068336609E-024
  0.92999999999999994          7.6841623379867041E-024
  0.94000000000000017          8.6990926348432378E-024
  0.94999999999999996          9.8241873571138858E-024
  0.96000000000000019          1.1067675112901008E-023
  0.96999999999999997          1.2437980147811461E-023
  0.98000000000000020          1.3943458865414250E-023
  0.98999999999999999          1.5592310685958241E-023
   1.0000000000000002          1.7392264079731887E-023
   1.0100000000000000          1.9350862134710909E-023
   1.0200000000000002          2.1475177777771519E-023
   1.0300000000000000          2.3771501385771950E-023
   1.0400000000000003          2.6244943199656224E-023
   1.0500000000000000          2.8899723625267273E-023
   1.0600000000000003          3.1738635230209578E-023
   1.0700000000000001          3.4762585204524146E-023
   1.0800000000000003          3.7971687144181326E-023
   1.0900000000000001          4.1363520823923902E-023
   1.1000000000000003          4.4932592616407913E-023
   1.1100000000000001          4.8671878504133273E-023
   1.1200000000000003          5.2571855358252153E-023
   1.1300000000000001          5.6618238485492811E-023
   1.1400000000000003          6.0796689550041950E-023
   1.1500000000000001          6.5086515152633812E-023
   1.1600000000000004          6.9465084451619417E-023
   1.1700000000000002          7.3905077616129151E-023
   1.1800000000000004          7.8377754865664002E-023
   1.1900000000000002          8.2847680568361442E-023
   1.2000000000000000          8.7279570553652746E-023
   1.2100000000000002          9.1628737428978954E-023
   1.2200000000000000          9.5852759410300900E-023
   1.2299999999999998          9.9902310602936926E-023
   1.2400000000000000          1.0372809035575434E-022
   1.2500000000000002          1.0727414003158038E-022
   1.2600000000000000          1.1048513208196647E-022
   1.2699999999999998          1.1330121405231168E-022
   1.2800000000000000          1.1566726665344641E-022
   1.2900000000000003          1.1751975187262053E-022
   1.3000000000000000          1.1880053381656288E-022
   1.3099999999999998          1.1944811919998967E-022
   1.3200000000000001          1.1940564692885257E-022
   1.3300000000000003          1.1862131724067115E-022
   1.3400000000000001          1.1704237111810422E-022
   1.3499999999999999          1.1461799329708108E-022
   1.3600000000000001          1.1130717563230470E-022
   1.3700000000000003          1.0707289845921488E-022
   1.3800000000000001          1.0188813224775512E-022
   1.3899999999999999          9.5728561149382904E-023
   1.4000000000000001          8.8582907608597177E-023
   1.4100000000000004          8.0444570437343053E-023
   1.4200000000000002          7.1320472678924754E-023
   1.4299999999999999          6.1225981343775983E-023
   1.4400000000000002          5.0195809467170086E-023
   1.4500000000000004          3.8259933763505463E-023
   1.4600000000000002          2.5479714989433823E-023
   1.4700000000000000          1.1901038028368253E-023
   1.4800000000000002         -2.3997602331843681E-024
   1.4900000000000004         -1.7333788976271474E-023
   1.5000000000000002         -3.2806834937412971E-023
   1.5100000000000000         -4.8725306475522082E-023
   1.5200000000000002         -6.4973329389952701E-023
   1.5300000000000005         -8.1422612809410547E-023
   1.5400000000000003         -9.7956960678000185E-023
   1.5500000000000000         -1.1444454487212832E-022
   1.5600000000000003         -1.3074796475476718E-022
   1.5700000000000005         -1.4672212040645403E-022
   1.5800000000000003         -1.6223661627499946E-022
   1.5900000000000001         -1.7715925189446291E-022
   1.6000000000000003         -1.9134117867836004E-022
   1.6100000000000005         -2.0466362572880078E-022
   1.6200000000000003         -2.1699521299518599E-022
   1.6300000000000001         -2.2823227784368239E-022
   1.6400000000000003         -2.3825199778679069E-022
   1.6500000000000006         -2.4696576796763647E-022
   1.6600000000000004         -2.5427130152580515E-022
   1.6700000000000002         -2.6012732525873557E-022
   1.6800000000000004         -2.6444775866445000E-022
   1.6899999999999997         -2.6720538919716196E-022
   1.7000000000000000         -2.6835288520255817E-022
   1.7099999999999997         -2.6790503940033334E-022
   1.7200000000000000         -2.6585859537267071E-022
   1.7299999999999998         -2.6222917887638091E-022
   1.7400000000000000         -2.5705152503484263E-022
   1.7499999999999998         -2.5037677727826316E-022
   1.7600000000000000         -2.4229301034898860E-022
   1.7699999999999998         -2.3284801028521364E-022
   1.7800000000000000         -2.2215002142490907E-022
   1.7899999999999998         -2.1028445531600498E-022
   1.8000000000000000         -1.9738702127774836E-022
   1.8099999999999998         -1.8356821032396808E-022
   1.8200000000000001         -1.6896252008356071E-022
   1.8299999999999998         -1.5369249536498689E-022
   1.8400000000000001         -1.3789063955677479E-022
   1.8499999999999999         -1.2171122860843668E-022
   1.8600000000000001         -1.0527627721390489E-022
   1.8699999999999999         -8.8740339001730323E-023
   1.8800000000000001         -7.2215331246258502E-023
   1.8899999999999999         -5.5828165889921380E-023
   1.9000000000000001         -3.9701816881512049E-023
   1.9099999999999999         -2.3953526306486268E-023
   1.9200000000000002         -8.6882939179116674E-024
   1.9299999999999999          5.9972732223147655E-024
   1.9400000000000002          2.0023739976480896E-023
   1.9500000000000000          3.3309604391302910E-023
   1.9600000000000002          4.5786345219692406E-023
   1.9700000000000000          5.7408159619770440E-023
   1.9800000000000002          6.8132376527451798E-023
   1.9900000000000000          7.7942720164539960E-023
   2.0000000000000000          8.6786974249996538E-023
   2.0099999999999998          9.4693922740531234E-023
   2.0200000000000005          1.0163224470276315E-022
   2.0300000000000002          1.0763291397127490E-022
   2.0400000000000000          1.1268735405030490E-022
   2.0499999999999998          1.1684245483205949E-022
   2.0600000000000005          1.2012072094044283E-022
   2.0700000000000003          1.2256985006122819E-022
   2.0800000000000001          1.2421766058537729E-022
   2.0899999999999999          1.2510090712018619E-022
   2.1000000000000005          1.2528991819307714E-022
   2.1100000000000003          1.2482720394051071E-022
   2.1200000000000001          1.2377992482451378E-022
   2.1299999999999999          1.2216340367930936E-022
   2.1400000000000006          1.2005901308499282E-022
   2.1500000000000004          1.1750122310767870E-022
   2.1600000000000001          1.1456099336351343E-022
   2.1699999999999999          1.1127752708404287E-022
   2.1800000000000006          1.0769428103881385E-022
   2.1900000000000004          1.0385293863805824E-022
   2.2000000000000002          9.9801841278047977E-023
   2.2100000000000000          9.5576973637835634E-023
   2.2200000000000006          9.1216945725566344E-023
   2.2300000000000004          8.6754119771015893E-023
   2.2400000000000002          8.2205806537888451E-023
   2.2500000000000000          7.7619236706301411E-023
   2.2600000000000007          7.2999742975974068E-023
   2.2700000000000005          6.8393729300795140E-023
   2.2800000000000002          6.3809444010389621E-023
   2.2900000000000000          5.9264481858387558E-023
   2.3000000000000007          5.4775756022596891E-023
   2.3100000000000005          5.0355651619229589E-023
   2.3199999999999994          4.6020214079097848E-023
   2.3300000000000001          4.1775665937022051E-023
   2.3399999999999999          3.7641757114625311E-023
   2.3499999999999996          3.3632324232185205E-023
   2.3599999999999994          2.9740172878246118E-023
   2.3700000000000001          2.5974529569955514E-023
   2.3799999999999999          2.2360383843068984E-023
   2.3899999999999997          1.8894368839243045E-023
   2.3999999999999995          1.5597023341006032E-023
   2.4100000000000001          1.2432997702334085E-023
   2.4199999999999999          9.4451034045535495E-024
   2.4299999999999997          6.6199432229110563E-024
   2.4399999999999995          3.9839940903989912E-024
   2.4500000000000002          1.5109252105076607E-024
   2.4600000000000000         -7.8659431062508553E-025
   2.4699999999999998         -2.9078834888228156E-024
   2.4799999999999995         -4.8373226809469271E-024
   2.4900000000000002         -6.5920743448514084E-024
   2.5000000000000000         -8.1698261320078304E-024
   2.5099999999999998         -9.5683802759342474E-024
   2.5199999999999996         -1.0796285662260539E-023
   2.5300000000000002         -1.1850089446804554E-023
   2.5400000000000000         -1.2745037944281498E-023
   2.5499999999999998         -1.3472661944012918E-023
   2.5599999999999996         -1.4045971340047720E-023
   2.5700000000000003         -1.4460588743222832E-023
   2.5800000000000001         -1.4744979410442248E-023
   2.5899999999999999         -1.4887586529444482E-023
   2.5999999999999996         -1.4917485935474169E-023
   2.6100000000000003         -1.4828478759538082E-023
   2.6200000000000001         -1.4632353739003844E-023
   2.6299999999999999         -1.4344924379577516E-023
   2.6399999999999997         -1.3961070973984214E-023
   2.6500000000000004         -1.3501717268874019E-023
   2.6600000000000001         -1.2968527760756947E-023
   2.6699999999999999         -1.2391656657735073E-023
   2.6799999999999997         -1.1753662245193959E-023
   2.6900000000000004         -1.1077856151743791E-023
   2.7000000000000002         -1.0372385732813692E-023
   2.7100000000000000         -9.6448208976501635E-024
   2.7199999999999998         -8.8985758362510012E-024
   2.7300000000000004         -8.1432612410245129E-024
   2.7400000000000002         -7.3899203757828876E-024
   2.7500000000000000         -6.6452538250550725E-024
   2.7599999999999998         -5.8996832397298742E-024
   2.7700000000000005         -5.1627715861308343E-024
   2.7800000000000002         -4.4520221100229966E-024
   2.7900000000000000         -3.7632794865881095E-024
   2.7999999999999998         -3.1054878207695688E-024
   2.8099999999999996         -2.4603897157769394E-024
   2.8200000000000003         -1.8623057485832193E-024
   2.8300000000000001         -1.2879665932442647E-024
   2.8399999999999999         -7.5863214976339524E-025
   2.8500000000000005         -2.4079611818512392E-025
   2.8600000000000003          2.3122294597362091E-025
   2.8700000000000001          6.7001299478506407E-025
   2.8799999999999999          1.0640681468199111E-024
   2.8899999999999997          1.4239313062093112E-024
   2.9000000000000004          1.7504216063957232E-024
   2.9100000000000001          2.0344738522867999E-024
   2.9199999999999999          2.2876780869096615E-024
   2.9300000000000006          2.5118768921236781E-024
   2.9400000000000004          2.7026840040805945E-024
   2.9500000000000002          2.8563211734748546E-024
   2.9600000000000000          2.9784299390701466E-024
   2.9699999999999998          3.0620912018667768E-024
   2.9799999999999995          3.1171990525532537E-024
   2.9899999999999993          3.1276782808182096E-024
   3.0000000000000000          3.1254858391473741E-024
   3.0099999999999998          3.0982527829773343E-024
   3.0199999999999996          3.0480956261167982E-024
   3.0299999999999994          2.9734991639820626E-024
   3.0400000000000000          2.8648209525133847E-024
   3.0499999999999998          2.7503278500970964E-024
   3.0599999999999996          2.6116666133427783E-024
   3.0699999999999994          2.4649351323128229E-024
   3.0800000000000001          2.2888751833333344E-024
   3.0899999999999999          2.1215100592511920E-024
   3.0999999999999996          1.9301268816182379E-024
   3.1099999999999994          1.7500666189883737E-024
   3.1200000000000001          1.5566091316051411E-024
   3.1299999999999999          1.3788547094012379E-024
   3.1399999999999997          1.1973960922092562E-024
   3.1499999999999995          1.0260665476479256E-024
   3.1600000000000001          8.6836250446441168E-025
   3.1699999999999999          7.3307793751108552E-025
   3.1799999999999997          6.1922499571938407E-025
   3.1899999999999995          5.1412555035485443E-025
   3.2000000000000002          4.4318240167981047E-025
   3.2100000000000000          3.9282623000402911E-025
   3.2199999999999998          3.7803770113288368E-025
   3.2299999999999995          3.8158624400360068E-025
   3.2400000000000002          4.3098621765464101E-025
   3.2500000000000000          5.1049245145585906E-025
   3.2599999999999998          6.3462839236234270E-025
   3.2699999999999996          7.7950605026502871E-025
   3.2800000000000002          9.5920447225842936E-025
   3.2900000000000000          1.1690590252023597E-024
   3.2999999999999998          1.4208460712089918E-024
   3.3099999999999996          1.7131510840676513E-024
   3.3200000000000003          2.0179229588495841E-024
   3.3300000000000001          2.3671562175411311E-024
   3.3399999999999999          2.7137199709294101E-024
   3.3499999999999996          3.0954698789189409E-024
   3.3600000000000003          3.4867245747402533E-024
   3.3700000000000001          3.9006122815780355E-024
   3.3799999999999999          4.3233005206744632E-024
   3.3899999999999997          4.7432695562305942E-024
   3.4000000000000004          5.1668393473886064E-024
   3.4100000000000001          5.5797224398635896E-024
   3.4199999999999999          5.9946384268913274E-024
   3.4299999999999997          6.3828625163300069E-024
   3.4400000000000004          6.7514889343002809E-024
   3.4500000000000002          7.0904048784276686E-024
   3.4600000000000000          7.4204611257285190E-024
   3.4699999999999998          7.7124193356117207E-024
   3.4800000000000004          7.9667733350039420E-024
   3.4900000000000002          8.1737223160187170E-024
   3.5000000000000000          8.3427941406693052E-024
   3.5099999999999998          8.4682845557500533E-024
   3.5200000000000005          8.5485961179278888E-024
   3.5300000000000002          8.5808605289514282E-024
   3.5400000000000000          8.5672140241520099E-024
   3.5499999999999998          8.5063644493668820E-024
   3.5600000000000005          8.3883761014947857E-024
   3.5700000000000003          8.2271771086783032E-024
   3.5800000000000001          8.0167910606994803E-024
   3.5899999999999999          7.7697782008912457E-024
   3.5999999999999996          7.4741730870432073E-024
   3.6099999999999994          7.1431141975318209E-024
   3.6200000000000001          6.7745063177928196E-024
   3.6299999999999999          6.3727911291530503E-024
   3.6399999999999997          5.9416956049592296E-024
   3.6499999999999995          5.4793505392964363E-024
   3.6599999999999993          5.0031408487939312E-024
   3.6699999999999999          4.5090287489083404E-024
   3.6799999999999997          4.0108094447197164E-024
   3.6899999999999995          3.4897873272047739E-024
   3.7000000000000002          2.9869930241963206E-024
   3.7100000000000000          2.4606443206340995E-024
   3.7199999999999998          1.9559236192950966E-024
   3.7299999999999995          1.4594401049207983E-024
   3.7399999999999993          9.8970331396847097E-025
   3.7500000000000000          5.2591680221661262E-025
   3.7599999999999998          7.6237329795450260E-026
   3.7699999999999996         -3.5337169695604624E-025
   3.7800000000000002         -7.5213168938534122E-025
   3.7900000000000000         -1.1134507408791333E-024
   3.7999999999999998         -1.4509375648690999E-024
   3.8099999999999996         -1.7600403846283093E-024
   3.8199999999999994         -2.0523312965982879E-024
   3.8300000000000001         -2.3050919941771891E-024
   3.8399999999999999         -2.5343823048887284E-024
   3.8499999999999996         -2.7332401368138778E-024
   3.8600000000000003         -2.9112254980477844E-024
   3.8700000000000001         -3.0521347911667561E-024
   3.8799999999999999         -3.1725808351890685E-024
   3.8899999999999997         -3.2769341167448722E-024
   3.8999999999999995         -3.3676262995745110E-024
   3.9100000000000001         -3.4441138585142877E-024
   3.9199999999999999         -3.5008305910169628E-024
   3.9299999999999997         -3.5544368449703515E-024
   3.9400000000000004         -3.5962823661182526E-024
   3.9500000000000002         -3.6368866146317886E-024
   3.9600000000000000         -3.6704337134872173E-024
   3.9699999999999998         -3.7053483027218467E-024
   3.9799999999999995         -3.7451790731178134E-024
   3.9900000000000002         -3.7895304109311491E-024
   4.0000000000000000         -3.8443842484061448E-024
   4.0099999999999998         -3.9065149333013517E-024
   4.0200000000000005         -3.9721879980914535E-024
   4.0300000000000002         -4.0410531885345322E-024
   4.0400000000000000         -4.1215734044217987E-024
   4.0499999999999998         -4.2114786984984796E-024
   4.0599999999999996         -4.3201860978206507E-024
   4.0700000000000003         -4.4161273611136301E-024
   4.0800000000000001         -4.5191222241906433E-024
   4.0899999999999999         -4.6226862504107734E-024
   4.1000000000000005         -4.7300596859422157E-024
   4.1100000000000003         -4.8364257460976908E-024
   4.1200000000000001         -4.9346050077787823E-024
   4.1299999999999999         -5.0234832049568654E-024
   4.1399999999999997         -5.1103718949319812E-024
   4.1500000000000004         -5.1723179863753663E-024
   4.1600000000000001         -5.2164322714866831E-024
   4.1699999999999999         -5.2401635740984468E-024
   4.1800000000000006         -5.2398046423865713E-024
   4.1900000000000004         -5.2174901339605845E-024
   4.2000000000000002         -5.1543327465972325E-024
   4.2100000000000000         -5.0705643959327185E-024
   4.2199999999999998         -4.9490514175360947E-024
   4.2300000000000004         -4.7921233176604788E-024
   4.2400000000000002         -4.5880816835118958E-024