  -1.2000000000000000          0.0000000000000000     
  -1.1899999999999999          0.0000000000000000     
  -1.1799999999999999          0.0000000000000000     
  -1.1699999999999999          0.0000000000000000     
  -1.1599999999999999          0.0000000000000000     
  -1.1499999999999999          0.0000000000000000     
  -1.1399999999999999          0.0000000000000000     
  -1.1299999999999999          0.0000000000000000     
  -1.1199999999999999          0.0000000000000000     
  -1.1099999999999999          0.0000000000000000     
  -1.0999999999999999          0.0000000000000000     
  -1.0899999999999999          0.0000000000000000     
  -1.0800000000000001          0.0000000000000000     
  -1.0699999999999998          0.0000000000000000     
  -1.0600000000000001          0.0000000000000000     
  -1.0500000000000000          0.0000000000000000     
  -1.0400000000000000          0.0000000000000000     
  -1.0300000000000000          0.0000000000000000     
  -1.0200000000000000          0.0000000000000000     
  -1.0100000000000000          0.0000000000000000     
  -1.0000000000000000          0.0000000000000000     
 -0.98999999999999999          0.0000000000000000     
 -0.97999999999999998          0.0000000000000000     
 -0.96999999999999997          0.0000000000000000     
 -0.95999999999999996          0.0000000000000000     
 -0.94999999999999996          0.0000000000000000     
 -0.93999999999999995          0.0000000000000000     
 -0.92999999999999994          0.0000000000000000     
 -0.91999999999999993          0.0000000000000000     
 -0.90999999999999992          0.0000000000000000     
 -0.89999999999999991          0.0000000000000000     
 -0.88999999999999990          0.0000000000000000     
 -0.87999999999999989          0.0000000000000000     
 -0.86999999999999988          0.0000000000000000     
 -0.85999999999999988          0.0000000000000000     
 -0.84999999999999987          0.0000000000000000     
 -0.83999999999999986          0.0000000000000000     
 -0.82999999999999996          0.0000000000000000     
 -0.81999999999999995          0.0000000000000000     
 -0.80999999999999994          0.0000000000000000     
 -0.79999999999999993          0.0000000000000000     
 -0.78999999999999992          0.0000000000000000     
 -0.77999999999999992          0.0000000000000000     
 -0.76999999999999991          0.0000000000000000     
 -0.76000000000000001          0.0000000000000000     
 -0.75000000000000000          0.0000000000000000     
 -0.73999999999999999          0.0000000000000000     
 -0.72999999999999998          0.0000000000000000     
 -0.71999999999999997          0.0000000000000000     
 -0.70999999999999996          0.0000000000000000     
 -0.69999999999999996          0.0000000000000000     
 -0.68999999999999995          0.0000000000000000     
 -0.67999999999999994          0.0000000000000000     
 -0.66999999999999993          0.0000000000000000     
 -0.65999999999999992          0.0000000000000000     
 -0.64999999999999991          0.0000000000000000     
 -0.63999999999999990          0.0000000000000000     
 -0.62999999999999989          0.0000000000000000     
 -0.61999999999999988          0.0000000000000000     
 -0.60999999999999988          0.0000000000000000     
 -0.59999999999999998          0.0000000000000000     
 -0.58999999999999997          0.0000000000000000     
 -0.57999999999999996          0.0000000000000000     
 -0.56999999999999995          0.0000000000000000     
 -0.55999999999999994          0.0000000000000000     
 -0.54999999999999993          0.0000000000000000     
 -0.53999999999999992          0.0000000000000000     
 -0.52999999999999992          0.0000000000000000     
 -0.51999999999999991          0.0000000000000000     
 -0.50999999999999990          0.0000000000000000     
 -0.49999999999999989          0.0000000000000000     
 -0.48999999999999988          0.0000000000000000     
 -0.47999999999999987          0.0000000000000000     
 -0.46999999999999997          0.0000000000000000     
 -0.45999999999999996          0.0000000000000000     
 -0.44999999999999996          0.0000000000000000     
 -0.43999999999999995          0.0000000000000000     
 -0.42999999999999994          0.0000000000000000     
 -0.41999999999999993          0.0000000000000000     
 -0.40999999999999992          0.0000000000000000     
 -0.39999999999999991          0.0000000000000000     
 -0.38999999999999990          0.0000000000000000     
 -0.37999999999999989          0.0000000000000000     
 -0.36999999999999988          0.0000000000000000     
 -0.35999999999999988          0.0000000000000000     
 -0.34999999999999987          0.0000000000000000     
 -0.33999999999999986          0.0000000000000000     
 -0.32999999999999985          0.0000000000000000     
 -0.32000000000000006          0.0000000000000000     
 -0.31000000000000005          0.0000000000000000     
 -0.30000000000000004          0.0000000000000000     
 -0.29000000000000004          0.0000000000000000     
 -0.28000000000000003          0.0000000000000000     
 -0.27000000000000002          0.0000000000000000     
 -0.26000000000000001          0.0000000000000000     
 -0.25000000000000000          0.0000000000000000     
 -0.23999999999999999          0.0000000000000000     
 -0.22999999999999998          0.0000000000000000     
 -0.21999999999999997          0.0000000000000000     
 -0.20999999999999996          0.0000000000000000     
 -0.19999999999999996          0.0000000000000000     
 -0.18999999999999995          0.0000000000000000     
 -0.17999999999999994          0.0000000000000000     
 -0.16999999999999993          0.0000000000000000     
 -0.15999999999999992          0.0000000000000000     
 -0.14999999999999991          0.0000000000000000     
 -0.13999999999999990          0.0000000000000000     
 -0.12999999999999989          0.0000000000000000     
 -0.11999999999999988          0.0000000000000000     
 -0.10999999999999988          0.0000000000000000     
  -9.9999999999999867E-002     0.0000000000000000     
  -8.9999999999999858E-002     0.0000000000000000     
  -7.9999999999999849E-002     0.0000000000000000     
  -6.9999999999999840E-002     0.0000000000000000     
  -5.9999999999999831E-002     0.0000000000000000     
  -4.9999999999999822E-002     0.0000000000000000     
  -3.9999999999999813E-002     0.0000000000000000     
  -2.9999999999999805E-002     0.0000000000000000     
  -1.9999999999999796E-002     0.0000000000000000     
  -9.9999999999997868E-003     0.0000000000000000     
   0.0000000000000000          0.0000000000000000     
   1.0000000000000009E-002     0.0000000000000000     
   2.0000000000000018E-002     0.0000000000000000     
   3.0000000000000027E-002     0.0000000000000000     
   4.0000000000000036E-002     0.0000000000000000     
   5.0000000000000044E-002     0.0000000000000000     
   6.0000000000000053E-002     0.0000000000000000     
   7.0000000000000062E-002     0.0000000000000000     
   8.0000000000000071E-002     0.0000000000000000     
   9.0000000000000080E-002     0.0000000000000000     
  0.10000000000000009          0.0000000000000000     
  0.11000000000000010          0.0000000000000000     
  0.12000000000000011          0.0000000000000000     
  0.13000000000000012          0.0000000000000000     
  0.14000000000000012          0.0000000000000000     
  0.15000000000000013          0.0000000000000000     
  0.16000000000000014          0.0000000000000000     
  0.17000000000000015          0.0000000000000000     
  0.18000000000000016          0.0000000000000000     
  0.19000000000000017          0.0000000000000000     
  0.20000000000000018          0.0000000000000000     
  0.21000000000000019          0.0000000000000000     
  0.22000000000000020          0.0000000000000000     
  0.23000000000000020          0.0000000000000000     
  0.24000000000000021          0.0000000000000000     
  0.25000000000000000          0.0000000000000000     
  0.26000000000000001          0.0000000000000000     
  0.27000000000000002          0.0000000000000000     
  0.28000000000000003          0.0000000000000000     
  0.29000000000000004          0.0000000000000000     
  0.30000000000000004          0.0000000000000000     
  0.31000000000000005          0.0000000000000000     
  0.32000000000000006          0.0000000000000000     
  0.33000000000000007          0.0000000000000000     
  0.34000000000000008          0.0000000000000000     
  0.35000000000000009          0.0000000000000000     
  0.36000000000000010          0.0000000000000000     
  0.37000000000000011          0.0000000000000000     
  0.38000000000000012          0.0000000000000000     
  0.39000000000000012          0.0000000000000000     
  0.40000000000000013          0.0000000000000000     
  0.41000000000000014          0.0000000000000000     
  0.42000000000000015          0.0000000000000000     
  0.43000000000000016          0.0000000000000000     
  0.44000000000000017          0.0000000000000000     
  0.45000000000000018          0.0000000000000000     
  0.46000000000000019          0.0000000000000000     
  0.47000000000000020          0.0000000000000000     
  0.48000000000000020          0.0000000000000000     
  0.49000000000000021          0.0000000000000000     
  0.50000000000000022          0.0000000000000000     
  0.51000000000000023          0.0000000000000000     
  0.52000000000000024          0.0000000000000000     
  0.53000000000000025          0.0000000000000000     
  0.54000000000000026          0.0000000000000000     
  0.55000000000000027          0.0000000000000000     
  0.55999999999999983          0.0000000000000000     
  0.57000000000000006          0.0000000000000000     
  0.57999999999999985          0.0000000000000000     
  0.59000000000000008          0.0000000000000000     
  0.59999999999999987          0.0000000000000000     
  0.61000000000000010          0.0000000000000000     
  0.61999999999999988          0.0000000000000000     
  0.63000000000000012          0.0000000000000000     
  0.63999999999999990          0.0000000000000000     
  0.65000000000000013          0.0000000000000000     
  0.65999999999999992          0.0000000000000000     
  0.67000000000000015          0.0000000000000000     
  0.67999999999999994          0.0000000000000000     
  0.69000000000000017          0.0000000000000000     
  0.69999999999999996          0.0000000000000000     
  0.71000000000000019          0.0000000000000000     
  0.71999999999999997          0.0000000000000000     
  0.73000000000000020          0.0000000000000000     
  0.73999999999999999          0.0000000000000000     
  0.75000000000000022          0.0000000000000000     
  0.76000000000000001          0.0000000000000000     
  0.77000000000000024          0.0000000000000000     
  0.78000000000000003          0.0000000000000000     
  0.79000000000000026          0.0000000000000000     
  0.80000000000000004          0.0000000000000000     
  0.81000000000000028          0.0000000000000000     
  0.82000000000000006          0.0000000000000000     
  0.83000000000000029          0.0000000000000000     
  0.84000000000000008          0.0000000000000000     
  0.85000000000000031          0.0000000000000000     
  0.86000000000000010          0.0000000000000000     
  0.87000000000000033          0.0000000000000000     
  0.88000000000000012          0.0000000000000000     
  0.88999999999999990          0.0000000000000000     
  0.90000000000000013          0.0000000000000000     
  0.90999999999999992          0.0000000000000000     
  0.92000000000000015          0.0000000000000000     
  0.92999999999999994          0.0000000000000000     
  0.94000000000000017          0.0000000000000000     
  0.94999999999999996          0.0000000000000000     
  0.96000000000000019          0.0000000000000000     
  0.96999999999999997          0.0000000000000000     
  0.98000000000000020          0.0000000000000000     
  0.98999999999999999          0.0000000000000000     
   1.0000000000000002          0.0000000000000000     
   1.0100000000000000          0.0000000000000000     
   1.0200000000000002          0.0000000000000000     
   1.0300000000000000          0.0000000000000000     
   1.0400000000000003          0.0000000000000000     
   1.0500000000000000          0.0000000000000000     
   1.0600000000000003          0.0000000000000000     
   1.0700000000000001          0.0000000000000000     
   1.0800000000000003          0.0000000000000000     
   1.0900000000000001          0.0000000000000000     
   1.1000000000000003          0.0000000000000000     
   1.1100000000000001          0.0000000000000000     
   1.1200000000000003          0.0000000000000000     
   1.1300000000000001          0.0000000000000000     
   1.1400000000000003          0.0000000000000000     
   1.1500000000000001          0.0000000000000000     
   1.1600000000000004          0.0000000000000000     
   1.1700000000000002          0.0000000000000000     
   1.1800000000000004          0.0000000000000000     
   1.1900000000000002          0.0000000000000000     
   1.2000000000000000          0.0000000000000000     
   1.2100000000000002          0.0000000000000000     
   1.2200000000000000          0.0000000000000000     
   1.2299999999999998          0.0000000000000000     
   1.2400000000000000          0.0000000000000000     
   1.2500000000000002          0.0000000000000000     
   1.2600000000000000          0.0000000000000000     
   1.2699999999999998          0.0000000000000000     
   1.2800000000000000          0.0000000000000000     
   1.2900000000000003          0.0000000000000000     
   1.3000000000000000          0.0000000000000000     
   1.3099999999999998          0.0000000000000000     
   1.3200000000000001          0.0000000000000000     
   1.3300000000000003          0.0000000000000000     
   1.3400000000000001          0.0000000000000000     
   1.3499999999999999          0.0000000000000000     
   1.3600000000000001          0.0000000000000000     
   1.3700000000000003          0.0000000000000000     
   1.3800000000000001          0.0000000000000000     
   1.3899999999999999          0.0000000000000000     
   1.4000000000000001          0.0000000000000000     
   1.4100000000000004          0.0000000000000000     
   1.4200000000000002          0.0000000000000000     
   1.4299999999999999          0.0000000000000000     
   1.4400000000000002          0.0000000000000000     
   1.4500000000000004          0.0000000000000000     
   1.4600000000000002          0.0000000000000000     
   1.4700000000000000          0.0000000000000000     
   1.4800000000000002          0.0000000000000000     
   1.4900000000000004          0.0000000000000000     
   1.5000000000000002          0.0000000000000000     
   1.5100000000000000          0.0000000000000000     
   1.5200000000000002          0.0000000000000000     
   1.5300000000000005          0.0000000000000000     
   1.5400000000000003          0.0000000000000000     
   1.5500000000000000          0.0000000000000000     
   1.5600000000000003          0.0000000000000000     
   1.5700000000000005          0.0000000000000000     
   1.5800000000000003          0.0000000000000000     
   1.5900000000000001          0.0000000000000000     
   1.6000000000000003          0.0000000000000000     
   1.6100000000000005          0.0000000000000000     
   1.6200000000000003          0.0000000000000000     
   1.6300000000000001          0.0000000000000000     
   1.6400000000000003          0.0000000000000000     
   1.6500000000000006          0.0000000000000000     
   1.6600000000000004          0.0000000000000000     
   1.6700000000000002          0.0000000000000000     
   1.6800000000000004          0.0000000000000000     
   1.6899999999999997          0.0000000000000000     
   1.7000000000000000          0.0000000000000000     
   1.7099999999999997          0.0000000000000000     
   1.7200000000000000          0.0000000000000000     
   1.7299999999999998          0.0000000000000000     
   1.7400000000000000          0.0000000000000000     
   1.7499999999999998          0.0000000000000000     
   1.7600000000000000          0.0000000000000000     
   1.7699999999999998          0.0000000000000000     
   1.7800000000000000          0.0000000000000000     
   1.7899999999999998          0.0000000000000000     
   1.8000000000000000          0.0000000000000000     
   1.8099999999999998          0.0000000000000000     
   1.8200000000000001          0.0000000000000000     
   1.8299999999999998          0.0000000000000000     
   1.8400000000000001          0.0000000000000000     
   1.8499999999999999          0.0000000000000000     
   1.8600000000000001          0.0000000000000000     
   1.8699999999999999          0.0000000000000000     
   1.8800000000000001          0.0000000000000000     
   1.8899999999999999          0.0000000000000000     
   1.9000000000000001          0.0000000000000000     
   1.9099999999999999          0.0000000000000000     
   1.9200000000000002          0.0000000000000000     
   1.9299999999999999          0.0000000000000000     
   1.9400000000000002          0.0000000000000000     
   1.9500000000000000          0.0000000000000000     
   1.9600000000000002          0.0000000000000000     
   1.9700000000000000          0.0000000000000000     
   1.9800000000000002          0.0000000000000000     
   1.9900000000000000          0.0000000000000000     
   2.0000000000000000          0.0000000000000000     
   2.0099999999999998          0.0000000000000000     
   2.0200000000000005          0.0000000000000000     
   2.0300000000000002          0.0000000000000000     
   2.0400000000000000          0.0000000000000000     
   2.0499999999999998          0.0000000000000000     
   2.0600000000000005          0.0000000000000000     
   2.0700000000000003          0.0000000000000000     
   2.0800000000000001          0.0000000000000000     
   2.0899999999999999          0.0000000000000000     
   2.1000000000000005          0.0000000000000000     
   2.1100000000000003          0.0000000000000000     
   2.1200000000000001          0.0000000000000000     
   2.1299999999999999          0.0000000000000000     
   2.1400000000000006          0.0000000000000000     
   2.1500000000000004          0.0000000000000000     
   2.1600000000000001          0.0000000000000000     
   2.1699999999999999          0.0000000000000000     
   2.1800000000000006          0.0000000000000000     
   2.1900000000000004          0.0000000000000000     
   2.2000000000000002          0.0000000000000000     
   2.2100000000000000          0.0000000000000000     
   2.2200000000000006          0.0000000000000000     
   2.2300000000000004          0.0000000000000000     
   2.2400000000000002          0.0000000000000000     
   2.2500000000000000          0.0000000000000000     
   2.2600000000000007          0.0000000000000000     
   2.2700000000000005          0.0000000000000000     
   2.2800000000000002          0.0000000000000000     
   2.2900000000000000          0.0000000000000000     
   2.3000000000000007          0.0000000000000000     
   2.3100000000000005          0.0000000000000000     
   2.3199999999999994          0.0000000000000000     
   2.3300000000000001          0.0000000000000000     
   2.3399999999999999          0.0000000000000000     
   2.3499999999999996          0.0000000000000000     
   2.3599999999999994          0.0000000000000000     
   2.3700000000000001          0.0000000000000000     
   2.3799999999999999          0.0000000000000000     
   2.3899999999999997          0.0000000000000000     
   2.3999999999999995          0.0000000000000000     
   2.4100000000000001          0.0000000000000000     
   2.4199999999999999          0.0000000000000000     
   2.4299999999999997          0.0000000000000000     
   2.4399999999999995          0.0000000000000000     
   2.4500000000000002          0.0000000000000000     
   2.4600000000000000          0.0000000000000000     
   2.4699999999999998          0.0000000000000000     
   2.4799999999999995         -4.4017846518271452E-032
   2.4900000000000002          6.7669424685029444E-032
   2.5000000000000000          3.3125047124815954E-030
   2.5099999999999998          2.5200489386487633E-029
   2.5199999999999996          5.1571089547749883E-029
   2.5300000000000002          7.4384590388960589E-029
   2.5400000000000000          1.1565757002373286E-028
   2.5499999999999998          1.9193619214237678E-028
   2.5599999999999996          3.0040948976868624E-028
   2.5700000000000003          4.4916567051948280E-028
   2.5800000000000001          6.7735557997206706E-028
   2.5899999999999999          1.0032992415364337E-027
   2.5999999999999996          1.4646398707923549E-027
   2.6100000000000003          2.1342666457493473E-027
   2.6200000000000001          3.0857290013501125E-027
   2.6299999999999999          4.4289505447285185E-027
   2.6399999999999997          6.3268393343114650E-027
   2.6500000000000004          8.9995185701277192E-027
   2.6600000000000001          1.2741490288879299E-026
   2.6699999999999999          1.7970442473185132E-026
   2.6799999999999997          2.5267886558593610E-026
   2.6900000000000004          3.5409195777739213E-026
   2.7000000000000002          4.9476523973725885E-026
   2.7100000000000000          6.8926918808912212E-026
   2.7199999999999998          9.5763288877190609E-026
   2.7300000000000004          1.3270798699950297E-025
   2.7400000000000002          1.8345718396940740E-025
   2.7500000000000000          2.5299134078606513E-025
   2.7599999999999998          3.4804940033993980E-025
   2.7700000000000005          4.7772267641491247E-025
   2.7800000000000002          6.5417671072036541E-025
   2.7900000000000000          8.9384685322280277E-025
   2.7999999999999998          1.2187127901977516E-024
   2.8099999999999996          1.6578142665034340E-024
   2.8200000000000003          2.2502284931561044E-024
   2.8300000000000001          3.0476798964197468E-024
   2.8399999999999999          4.1193156845110562E-024
   2.8500000000000005          5.5556168227522985E-024
   2.8600000000000003          7.4759835228206895E-024
   2.8700000000000001          1.0039155109230232E-023
   2.8799999999999999          1.3451823394340600E-023
   2.8899999999999997          1.7987035225554131E-023
   2.9000000000000004          2.4000443019963382E-023
   2.9100000000000001          3.1953842796041112E-023
   2.9199999999999999          4.2457083986951961E-023
   2.9300000000000006          5.6283105129405958E-023
   2.9400000000000004          7.4466159668133027E-023
   2.9500000000000002          9.8300771504044469E-023
   2.9600000000000000          1.2948985151779726E-022
   2.9699999999999998          1.7022069642940305E-022
   2.9799999999999995          2.2329150946565111E-022
   2.9899999999999993          2.9228182587007232E-022
   3.0000000000000000          3.8175172868050000E-022
   3.0099999999999998          4.9755716589921768E-022
   3.0199999999999996          6.4708753015406264E-022
   3.0299999999999994          8.3974690171593424E-022
   3.0400000000000000          1.0874151471642264E-021
   3.0499999999999998          1.4050769381399892E-021
   3.0599999999999996          1.8118670362215572E-021
   3.0699999999999994          2.3313881596931431E-021
   3.0800000000000001          2.9932233245634550E-021
   3.0899999999999999          3.8342075135884613E-021
   3.0999999999999996          4.9008936680828865E-021
   3.1099999999999994          6.2513924377689313E-021
   3.1200000000000001          7.9562415686026984E-021
   3.1299999999999999          1.0104677612027964E-020
   3.1399999999999997          1.2806638849125420E-020
   3.1499999999999995          1.6193666384336606E-020
   3.1600000000000001          2.0432858779332902E-020
   3.1699999999999999          2.5724711205223951E-020
   3.1799999999999997          3.2313687844761850E-020
   3.1899999999999995          4.0504107152835152E-020
   3.2000000000000002          5.0654543847049924E-020
   3.2100000000000000          6.3215423620335431E-020
   3.2199999999999998          7.8711237142187115E-020
   3.2299999999999995          9.7788762103439015E-020
   3.2400000000000002          1.2122748052210311E-019
   3.2500000000000000          1.4996851714011162E-019
   3.2599999999999998          1.8505852685098260E-019
   3.2699999999999996          2.2785620550962269E-019
   3.2800000000000002          2.7993686689385086E-019
   3.2900000000000000          3.4319315194397670E-019
   3.2999999999999998          4.1984182715345991E-019
   3.3099999999999996          5.1235287968077798E-019
   3.3200000000000003          6.2387993561128931E-019
   3.3300000000000001          7.5781562452859186E-019
   3.3399999999999999          9.1849504492671121E-019
   3.3499999999999996          1.1106205634916465E-018
   3.3600000000000003          1.3398963143299867E-018
   3.3700000000000001          1.6129003478654834E-018
   3.3799999999999999          1.9372305248195891E-018
   3.3899999999999997          2.3215566285900488E-018
   3.4000000000000004          2.7754463471295336E-018
   3.4100000000000001          3.3096000888420295E-018
   3.4199999999999999          3.9377453295831602E-018
   3.4299999999999997          4.6729343590335531E-018
   3.4400000000000004          5.5337274557776730E-018
   3.4500000000000002          6.5366632689829053E-018
   3.4600000000000000          7.7051584546100134E-018
   3.4699999999999998          9.0601679791168034E-018
   3.4800000000000004          1.0626733908367705E-017
   3.4900000000000002          1.2435130225601548E-017
   3.5000000000000000          1.4514984885998755E-017
   3.5099999999999998          1.6901508486693872E-017
   3.5200000000000005          1.9633312164319648E-017
   3.5300000000000002          2.2742563318537047E-017
   3.5400000000000000          2.6276790092982139E-017
   3.5499999999999998          3.0293551023398814E-017
   3.5600000000000005          3.4844943599126888E-017
   3.5700000000000003          3.9975412234478835E-017
   3.5800000000000001          4.5737519294298723E-017
   3.5899999999999999          5.2180127991731287E-017
   3.5999999999999996          5.9376572851163026E-017
   3.6099999999999994          6.7397478553293718E-017
   3.6200000000000001          7.6318111916420789E-017
   3.6299999999999999          8.6201590130004484E-017
   3.6399999999999997          9.7039383307568158E-017
   3.6499999999999995          1.0894222115463061E-016
   3.6599999999999993          1.2202381784436072E-016
   3.6699999999999999          1.3628824972281717E-016
   3.6799999999999997          1.5178706006832934E-016
   3.6899999999999995          1.6849792162180322E-016
   3.7000000000000002          1.8649829819324316E-016
   3.7100000000000000          2.0592667966952524E-016
   3.7199999999999998          2.2660653909048576E-016
   3.7299999999999995          2.4865107446859136E-016
   3.7399999999999993          2.7186652701715762E-016
   3.7500000000000000          2.9638423978256816E-016
   3.7599999999999998          3.2206024363356936E-016
   3.7699999999999996          3.4891873194871717E-016
   3.7800000000000002          3.7676475480124508E-016
   3.7900000000000000          4.0535179913372250E-016
   3.7999999999999998          4.3466231548227349E-016
   3.8099999999999996          4.6402688312077115E-016
   3.8199999999999994          4.9327704837183028E-016
   3.8300000000000001          5.2246098623432596E-016
   3.8399999999999999          5.5154952701113712E-016
   3.8499999999999996          5.7921441716185062E-016
   3.8600000000000003          6.0648215473942026E-016
   3.8700000000000001          6.3073646672801432E-016
   3.8799999999999999          6.5410324700656349E-016
   3.8899999999999997          6.7442589675179910E-016
   3.8999999999999995          6.9212777361867071E-016
   3.9100000000000001          7.0501845040557868E-016
   3.9199999999999999          7.1337697152908412E-016
   3.9299999999999997          7.1520036876672661E-016
   3.9400000000000004          7.1505086745153623E-016
   3.9500000000000002          7.0724185895256202E-016
   3.9600000000000000          6.9123653613948157E-016
   3.9699999999999998          6.6900763874645016E-016
   3.9799999999999995          6.4077237778487929E-016
   3.9900000000000002          6.0480788824005373E-016
   4.0000000000000000          5.5541321486047841E-016
   4.0099999999999998          4.9865099596612598E-016
   4.0200000000000005          4.3162715820424492E-016
   4.0300000000000002          3.5804469139221460E-016
   4.0400000000000000          2.7644542831133676E-016
   4.0499999999999998          1.8259348954129063E-016
   4.0599999999999996          8.3783165481805648E-017
   4.0700000000000003         -3.1124166089855162E-017
   4.0800000000000001         -1.5079016846386003E-016
   4.0899999999999999         -2.8142407621706072E-016
   4.1000000000000005         -4.2027151687599855E-016
   4.1100000000000003         -5.5813250825851994E-016
   4.1200000000000001         -7.0621689614682511E-016
   4.1299999999999999         -8.5003462026113277E-016
   4.1399999999999997         -1.0031112615218772E-015
   4.1500000000000004         -1.1664168844119013E-015
   4.1600000000000001         -1.3263898561709534E-015
   4.1699999999999999         -1.4864972944103822E-015
   4.1800000000000006         -1.6352347976405796E-015
   4.1900000000000004         -1.7822818348662943E-015
   4.2000000000000002         -1.9121694668882945E-015
   4.2100000000000000         -2.0444849070953624E-015
   4.2199999999999998         -2.1729111955251122E-015
   4.2300000000000004         -2.2977729575545790E-015
   4.2400000000000002         -2.4023844911558005E-015