  -1.2000000000000000          0.0000000000000000     
  -1.1899999999999999          0.0000000000000000     
  -1.1799999999999999          0.0000000000000000     
  -1.1699999999999999          0.0000000000000000     
  -1.1599999999999999          0.0000000000000000     
  -1.1499999999999999          0.0000000000000000     
  -1.1399999999999999          0.0000000000000000     
  -1.1299999999999999          0.0000000000000000     
  -1.1199999999999999          0.0000000000000000     
  -1.1099999999999999          0.0000000000000000     
  -1.0999999999999999          0.0000000000000000     
  -1.0899999999999999          0.0000000000000000     
  -1.0800000000000001          0.0000000000000000     
  -1.0699999999999998          0.0000000000000000     
  -1.0600000000000001          0.0000000000000000     
  -1.0500000000000000          0.0000000000000000     
  -1.0400000000000000          0.0000000000000000     
  -1.0300000000000000          0.0000000000000000     
  -1.0200000000000000          0.0000000000000000     
  -1.0100000000000000          0.0000000000000000     
  -1.0000000000000000          0.0000000000000000     
 -0.98999999999999999          0.0000000000000000     
 -0.97999999999999998          0.0000000000000000     
 -0.96999999999999997          0.0000000000000000     
 -0.95999999999999996          0.0000000000000000     
 -0.94999999999999996          0.0000000000000000     
 -0.93999999999999995          0.0000000000000000     
 -0.92999999999999994          0.0000000000000000     
 -0.91999999999999993          0.0000000000000000     
 -0.90999999999999992          0.0000000000000000     
 -0.89999999999999991          0.0000000000000000     
 -0.88999999999999990          0.0000000000000000     
 -0.87999999999999989          0.0000000000000000     
 -0.86999999999999988          0.0000000000000000     
 -0.85999999999999988          0.0000000000000000     
 -0.84999999999999987          0.0000000000000000     
 -0.83999999999999986          0.0000000000000000     
 -0.82999999999999996          0.0000000000000000     
 -0.81999999999999995          0.0000000000000000     
 -0.80999999999999994          0.0000000000000000     
 -0.79999999999999993          0.0000000000000000     
 -0.78999999999999992          0.0000000000000000     
 -0.77999999999999992          0.0000000000000000     
 -0.76999999999999991          0.0000000000000000     
 -0.76000000000000001          0.0000000000000000     
 -0.75000000000000000          0.0000000000000000     
 -0.73999999999999999          0.0000000000000000     
 -0.72999999999999998          0.0000000000000000     
 -0.71999999999999997          0.0000000000000000     
 -0.70999999999999996          0.0000000000000000     
 -0.69999999999999996          0.0000000000000000     
 -0.68999999999999995          0.0000000000000000     
 -0.67999999999999994          0.0000000000000000     
 -0.66999999999999993          0.0000000000000000     
 -0.65999999999999992          0.0000000000000000     
 -0.64999999999999991          0.0000000000000000     
 -0.63999999999999990          0.0000000000000000     
 -0.62999999999999989          0.0000000000000000     
 -0.61999999999999988          0.0000000000000000     
 -0.60999999999999988          0.0000000000000000     
 -0.59999999999999998          0.0000000000000000     
 -0.58999999999999997          0.0000000000000000     
 -0.57999999999999996          0.0000000000000000     
 -0.56999999999999995          0.0000000000000000     
 -0.55999999999999994          0.0000000000000000     
 -0.54999999999999993          0.0000000000000000     
 -0.53999999999999992          0.0000000000000000     
 -0.52999999999999992          0.0000000000000000     
 -0.51999999999999991          0.0000000000000000     
 -0.50999999999999990          0.0000000000000000     
 -0.49999999999999989          0.0000000000000000     
 -0.48999999999999988          0.0000000000000000     
 -0.47999999999999987          0.0000000000000000     
 -0.46999999999999997          0.0000000000000000     
 -0.45999999999999996          0.0000000000000000     
 -0.44999999999999996          0.0000000000000000     
 -0.43999999999999995          0.0000000000000000     
 -0.42999999999999994          0.0000000000000000     
 -0.41999999999999993          0.0000000000000000     
 -0.40999999999999992          0.0000000000000000     
 -0.39999999999999991          0.0000000000000000     
 -0.38999999999999990          0.0000000000000000     
 -0.37999999999999989          0.0000000000000000     
 -0.36999999999999988          0.0000000000000000     
 -0.35999999999999988          0.0000000000000000     
 -0.34999999999999987          0.0000000000000000     
 -0.33999999999999986          0.0000000000000000     
 -0.32999999999999985          0.0000000000000000     
 -0.32000000000000006          0.0000000000000000     
 -0.31000000000000005          0.0000000000000000     
 -0.30000000000000004          0.0000000000000000     
 -0.29000000000000004          0.0000000000000000     
 -0.28000000000000003          0.0000000000000000     
 -0.27000000000000002          0.0000000000000000     
 -0.26000000000000001          0.0000000000000000     
 -0.25000000000000000          0.0000000000000000     
 -0.23999999999999999          0.0000000000000000     
 -0.22999999999999998          0.0000000000000000     
 -0.21999999999999997          0.0000000000000000     
 -0.20999999999999996          0.0000000000000000     
 -0.19999999999999996          0.0000000000000000     
 -0.18999999999999995          0.0000000000000000     
 -0.17999999999999994          0.0000000000000000     
 -0.16999999999999993          0.0000000000000000     
 -0.15999999999999992          0.0000000000000000     
 -0.14999999999999991          0.0000000000000000     
 -0.13999999999999990          0.0000000000000000     
 -0.12999999999999989          0.0000000000000000     
 -0.11999999999999988          0.0000000000000000     
 -0.10999999999999988          0.0000000000000000     
  -9.9999999999999867E-002     0.0000000000000000     
  -8.9999999999999858E-002     0.0000000000000000     
  -7.9999999999999849E-002     0.0000000000000000     
  -6.9999999999999840E-002     0.0000000000000000     
  -5.9999999999999831E-002     0.0000000000000000     
  -4.9999999999999822E-002     0.0000000000000000     
  -3.9999999999999813E-002     0.0000000000000000     
  -2.9999999999999805E-002     0.0000000000000000     
  -1.9999999999999796E-002     0.0000000000000000     
  -9.9999999999997868E-003     0.0000000000000000     
   0.0000000000000000          0.0000000000000000     
   1.0000000000000009E-002     0.0000000000000000     
   2.0000000000000018E-002     0.0000000000000000     
   3.0000000000000027E-002     0.0000000000000000     
   4.0000000000000036E-002     0.0000000000000000     
   5.0000000000000044E-002     0.0000000000000000     
   6.0000000000000053E-002     0.0000000000000000     
   7.0000000000000062E-002     0.0000000000000000     
   8.0000000000000071E-002     0.0000000000000000     
   9.0000000000000080E-002     0.0000000000000000     
  0.10000000000000009          0.0000000000000000     
  0.11000000000000010          0.0000000000000000     
  0.12000000000000011          0.0000000000000000     
  0.13000000000000012          0.0000000000000000     
  0.14000000000000012          0.0000000000000000     
  0.15000000000000013          0.0000000000000000     
  0.16000000000000014          0.0000000000000000     
  0.17000000000000015          0.0000000000000000     
  0.18000000000000016          0.0000000000000000     
  0.19000000000000017          0.0000000000000000     
  0.20000000000000018          0.0000000000000000     
  0.21000000000000019          0.0000000000000000     
  0.22000000000000020          0.0000000000000000     
  0.23000000000000020          0.0000000000000000     
  0.24000000000000021          0.0000000000000000     
  0.25000000000000000          0.0000000000000000     
  0.26000000000000001          0.0000000000000000     
  0.27000000000000002          0.0000000000000000     
  0.28000000000000003          0.0000000000000000     
  0.29000000000000004          0.0000000000000000     
  0.30000000000000004          0.0000000000000000     
  0.31000000000000005          0.0000000000000000     
  0.32000000000000006          0.0000000000000000     
  0.33000000000000007          0.0000000000000000     
  0.34000000000000008          0.0000000000000000     
  0.35000000000000009          0.0000000000000000     
  0.36000000000000010          0.0000000000000000     
  0.37000000000000011          0.0000000000000000     
  0.38000000000000012          0.0000000000000000     
  0.39000000000000012          0.0000000000000000     
  0.40000000000000013          0.0000000000000000     
  0.41000000000000014          0.0000000000000000     
  0.42000000000000015          0.0000000000000000     
  0.43000000000000016          0.0000000000000000     
  0.44000000000000017          0.0000000000000000     
  0.45000000000000018          0.0000000000000000     
  0.46000000000000019          0.0000000000000000     
  0.47000000000000020          0.0000000000000000     
  0.48000000000000020          0.0000000000000000     
  0.49000000000000021          0.0000000000000000     
  0.50000000000000022          0.0000000000000000     
  0.51000000000000023          0.0000000000000000     
  0.52000000000000024          0.0000000000000000     
  0.53000000000000025          0.0000000000000000     
  0.54000000000000026          0.0000000000000000     
  0.55000000000000027          0.0000000000000000     
  0.55999999999999983          0.0000000000000000     
  0.57000000000000006          0.0000000000000000     
  0.57999999999999985          0.0000000000000000     
  0.59000000000000008          0.0000000000000000     
  0.59999999999999987          0.0000000000000000     
  0.61000000000000010          0.0000000000000000     
  0.61999999999999988          0.0000000000000000     
  0.63000000000000012          0.0000000000000000     
  0.63999999999999990          0.0000000000000000     
  0.65000000000000013          0.0000000000000000     
  0.65999999999999992          0.0000000000000000     
  0.67000000000000015          0.0000000000000000     
  0.67999999999999994          0.0000000000000000     
  0.69000000000000017          0.0000000000000000     
  0.69999999999999996          0.0000000000000000     
  0.71000000000000019          0.0000000000000000     
  0.71999999999999997          0.0000000000000000     
  0.73000000000000020          0.0000000000000000     
  0.73999999999999999          0.0000000000000000     
  0.75000000000000022          0.0000000000000000     
  0.76000000000000001          0.0000000000000000     
  0.77000000000000024          0.0000000000000000     
  0.78000000000000003          0.0000000000000000     
  0.79000000000000026          0.0000000000000000     
  0.80000000000000004          0.0000000000000000     
  0.81000000000000028          0.0000000000000000     
  0.82000000000000006          0.0000000000000000     
  0.83000000000000029          0.0000000000000000     
  0.84000000000000008          0.0000000000000000     
  0.85000000000000031          0.0000000000000000     
  0.86000000000000010          0.0000000000000000     
  0.87000000000000033          0.0000000000000000     
  0.88000000000000012          0.0000000000000000     
  0.88999999999999990          0.0000000000000000     
  0.90000000000000013          0.0000000000000000     
  0.90999999999999992          0.0000000000000000     
  0.92000000000000015          0.0000000000000000     
  0.92999999999999994          0.0000000000000000     
  0.94000000000000017          0.0000000000000000     
  0.94999999999999996          0.0000000000000000     
  0.96000000000000019          0.0000000000000000     
  0.96999999999999997          0.0000000000000000     
  0.98000000000000020          0.0000000000000000     
  0.98999999999999999          0.0000000000000000     
   1.0000000000000002          0.0000000000000000     
   1.0100000000000000          0.0000000000000000     
   1.0200000000000002          0.0000000000000000     
   1.0300000000000000          0.0000000000000000     
   1.0400000000000003          0.0000000000000000     
   1.0500000000000000          0.0000000000000000     
   1.0600000000000003          0.0000000000000000     
   1.0700000000000001          0.0000000000000000     
   1.0800000000000003          0.0000000000000000     
   1.0900000000000001          0.0000000000000000     
   1.1000000000000003          0.0000000000000000     
   1.1100000000000001          0.0000000000000000     
   1.1200000000000003          0.0000000000000000     
   1.1300000000000001          0.0000000000000000     
   1.1400000000000003          0.0000000000000000     
   1.1500000000000001          0.0000000000000000     
   1.1600000000000004          0.0000000000000000     
   1.1700000000000002          0.0000000000000000     
   1.1800000000000004          0.0000000000000000     
   1.1900000000000002          0.0000000000000000     
   1.2000000000000000          0.0000000000000000     
   1.2100000000000002          0.0000000000000000     
   1.2200000000000000          0.0000000000000000     
   1.2299999999999998          0.0000000000000000     
   1.2400000000000000          0.0000000000000000     
   1.2500000000000002          0.0000000000000000     
   1.2600000000000000          0.0000000000000000     
   1.2699999999999998          0.0000000000000000     
   1.2800000000000000          0.0000000000000000     
   1.2900000000000003          0.0000000000000000     
   1.3000000000000000          0.0000000000000000     
   1.3099999999999998          0.0000000000000000     
   1.3200000000000001          0.0000000000000000     
   1.3300000000000003          0.0000000000000000     
   1.3400000000000001          0.0000000000000000     
   1.3499999999999999          0.0000000000000000     
   1.3600000000000001          0.0000000000000000     
   1.3700000000000003          0.0000000000000000     
   1.3800000000000001          0.0000000000000000     
   1.3899999999999999          0.0000000000000000     
   1.4000000000000001          0.0000000000000000     
   1.4100000000000004          0.0000000000000000     
   1.4200000000000002          0.0000000000000000     
   1.4299999999999999          0.0000000000000000     
   1.4400000000000002          0.0000000000000000     
   1.4500000000000004          0.0000000000000000     
   1.4600000000000002          0.0000000000000000     
   1.4700000000000000          0.0000000000000000     
   1.4800000000000002          0.0000000000000000     
   1.4900000000000004          0.0000000000000000     
   1.5000000000000002          0.0000000000000000     
   1.5100000000000000          0.0000000000000000     
   1.5200000000000002          0.0000000000000000     
   1.5300000000000005          0.0000000000000000     
   1.5400000000000003          0.0000000000000000     
   1.5500000000000000          0.0000000000000000     
   1.5600000000000003          0.0000000000000000     
   1.5700000000000005          0.0000000000000000     
   1.5800000000000003          0.0000000000000000     
   1.5900000000000001          0.0000000000000000     
   1.6000000000000003          0.0000000000000000     
   1.6100000000000005          0.0000000000000000     
   1.6200000000000003          0.0000000000000000     
   1.6300000000000001          0.0000000000000000     
   1.6400000000000003          0.0000000000000000     
   1.6500000000000006          0.0000000000000000     
   1.6600000000000004          0.0000000000000000     
   1.6700000000000002          0.0000000000000000     
   1.6800000000000004          0.0000000000000000     
   1.6899999999999997          0.0000000000000000     
   1.7000000000000000          0.0000000000000000     
   1.7099999999999997          0.0000000000000000     
   1.7200000000000000          0.0000000000000000     
   1.7299999999999998          0.0000000000000000     
   1.7400000000000000          0.0000000000000000     
   1.7499999999999998          0.0000000000000000     
   1.7600000000000000          0.0000000000000000     
   1.7699999999999998          0.0000000000000000     
   1.7800000000000000          0.0000000000000000     
   1.7899999999999998          0.0000000000000000     
   1.8000000000000000          0.0000000000000000     
   1.8099999999999998         -7.5848251067316336E-031
   1.8200000000000001          2.1673277715602356E-030
   1.8299999999999998         -8.9385071919012839E-030
   1.8400000000000001          2.1674174852890904E-029
   1.8499999999999999         -8.6806785868111344E-030
   1.8600000000000001         -1.3844599164594900E-028
   1.8699999999999999          5.7342397422942512E-028
   1.8800000000000001         -9.5413776118301069E-028
   1.8899999999999999         -1.1587864992946151E-027
   1.9000000000000001          9.6970819218930207E-027
   1.9099999999999999         -1.6718845313573999E-026
   1.9200000000000002         -3.0245654337320593E-026
   1.9299999999999999          2.1838734088096325E-025
   1.9400000000000002          5.3564676053302831E-025
   1.9500000000000000          4.9480610026695897E-025
   1.9600000000000002          5.3474558555642646E-025
   1.9700000000000000          9.5342892574846688E-025
   1.9800000000000002          1.2681011034985366E-024
   1.9900000000000000          1.6790028732024441E-024
   2.0000000000000000          2.4372252097255770E-024
   2.0099999999999998          3.2421181351233955E-024
   2.0200000000000005          4.4127376258038954E-024
   2.0300000000000002          6.0659321256311289E-024
   2.0400000000000000          8.0895027369164166E-024
   2.0499999999999998          1.0959270636166442E-023
   2.0600000000000005          1.4739272790653879E-023
   2.0700000000000003          1.9656541002318620E-023
   2.0800000000000001          2.6309664503764177E-023
   2.0899999999999999          3.5019267921308579E-023
   2.1000000000000005          4.6518076818157312E-023
   2.1100000000000003          6.1728315346446240E-023
   2.1200000000000001          8.1585686135737835E-023
   2.1299999999999999          1.0771592738205311E-022
   2.1400000000000006          1.4183300032960939E-022
   2.1500000000000004          1.8627481102244310E-022
   2.1600000000000001          2.4422752448053123E-022
   2.1699999999999999          3.1939511402203781E-022
   2.1800000000000006          4.1688221652311388E-022
   2.1900000000000004          5.4286741778539110E-022
   2.2000000000000002          7.0545283679824308E-022
   2.2100000000000000          9.1464870193036652E-022
   2.2200000000000006          1.1833967748920042E-021
   2.2300000000000004          1.5275857997869129E-021
   2.2400000000000002          1.9678097667850179E-021
   2.2500000000000000          2.5295294203487041E-021
   2.2600000000000007          3.2445115454207232E-021
   2.2700000000000005          4.1523275254650743E-021
   2.2800000000000002          5.3027027090822718E-021
   2.2900000000000000          6.7577182533244492E-021
   2.3000000000000007          8.5923515375916461E-021
   2.3100000000000005          1.0900735554033684E-020
   2.3199999999999994          1.3799817000718081E-020
   2.3300000000000001          1.7430430647074094E-020
   2.3399999999999999          2.1968734459626406E-020
   2.3499999999999996          2.7626184560394554E-020
   2.3599999999999994          3.4669097563703668E-020
   2.3700000000000001          4.3421941527176208E-020
   2.3799999999999999          5.4245871261071069E-020
   2.3899999999999997          6.7620011748163986E-020
   2.3999999999999995          8.4091659285932426E-020
   2.4100000000000001          1.0436994030388161E-019
   2.4199999999999999          1.2925529421632439E-019
   2.4299999999999997          1.5970192555862895E-019
   2.4399999999999995          1.9686936060383565E-019
   2.4500000000000002          2.4213561762897247E-019
   2.4600000000000000          2.9719973853692041E-019
   2.4699999999999998          3.6394318440502254E-019
   2.4799999999999995          4.4463165462984988E-019
   2.4900000000000002          5.4198755570367931E-019
   2.5000000000000000          6.5913220196919139E-019
   2.5099999999999998          7.9990376316742046E-019
   2.5199999999999996          9.6842831959135757E-019
   2.5300000000000002          1.1696615102908079E-018
   2.5400000000000000          1.4096312588833869E-018
   2.5499999999999998          1.6949967828904525E-018
   2.5599999999999996          2.0330176261629234E-018
   2.5700000000000003          2.4322600711243987E-018
   2.5800000000000001          2.9045495952095131E-018
   2.5899999999999999          3.4600698257345599E-018
   2.5999999999999996          4.1114441592325579E-018
   2.6100000000000003          4.8742998986310119E-018
   2.6200000000000001          5.7663554594459610E-018
   2.6299999999999999          6.8035535072134459E-018
   2.6399999999999997          8.0091787625865281E-018
   2.6500000000000004          9.4046887042451394E-018
   2.6600000000000001          1.1017305432558094E-017
   2.6699999999999999          1.2873628594483259E-017
   2.6799999999999997          1.5004697315326074E-017
   2.6900000000000004          1.7448135905248514E-017
   2.7000000000000002          2.0243902150920566E-017
   2.7100000000000000          2.3430201870474829E-017
   2.7199999999999998          2.7033203749770030E-017
   2.7300000000000004          3.1115798330778576E-017
   2.7400000000000002          3.5739145693631412E-017
   2.7500000000000000          4.0936450522477644E-017
   2.7599999999999998          4.6770333698409984E-017
   2.7700000000000005          5.3299121380780771E-017
   2.7800000000000002          6.0575971504475115E-017
   2.7900000000000000          6.8662244327332198E-017
   2.7999999999999998          7.7625699176409914E-017
   2.8099999999999996          8.7522193904112744E-017
   2.8200000000000003          9.8407493718616562E-017
   2.8300000000000001          1.1036188807889822E-016
   2.8399999999999999          1.2337963966022904E-016
   2.8500000000000005          1.3754139526361050E-016
   2.8600000000000003          1.5289755996684913E-016
   2.8700000000000001          1.6949024718929123E-016
   2.8799999999999999          1.8738271970418486E-016
   2.8899999999999997          2.0643720230870317E-016
   2.9000000000000004          2.2677110171026951E-016
   2.9100000000000001          2.4820789094872015E-016
   2.9199999999999999          2.7106851610172566E-016
   2.9300000000000006          2.9507827379657964E-016
   2.9400000000000004          3.2017956579286880E-016
   2.9500000000000002          3.4632493177576729E-016
   2.9600000000000000          3.7296663259597719E-016
   2.9699999999999998          4.0022764684952800E-016
   2.9799999999999995          4.2797014639403368E-016
   2.9899999999999993          4.5610929558587078E-016
   3.0000000000000000          4.8407795292729336E-016
   3.0099999999999998          5.1199954700058411E-016
   3.0199999999999996          5.3887754354329837E-016
   3.0299999999999994          5.6487176708467117E-016
   3.0400000000000000          5.8924312843866393E-016
   3.0499999999999998          6.1128181399547755E-016
   3.0599999999999996          6.3117734737706019E-016
   3.0699999999999994          6.4904413097085036E-016
   3.0800000000000001          6.6279534029260951E-016
   3.0899999999999999          6.7223541661064028E-016
   3.0999999999999996          6.7751047310834404E-016
   3.1099999999999994          6.7838143473635828E-016
   3.1200000000000001          6.7359035168889194E-016
   3.1299999999999999          6.6211903742378615E-016
   3.1399999999999997          6.4605204002423375E-016
   3.1499999999999995          6.2111840761194174E-016
   3.1600000000000001          5.8972143735606659E-016
   3.1699999999999999          5.4837151233259819E-016
   3.1799999999999997          4.9786516114931081E-016
   3.1899999999999995          4.4010227870689583E-016
   3.2000000000000002          3.7904809092924666E-016
   3.2100000000000000          3.0473574641447915E-016
   3.2199999999999998          2.1900759476243062E-016
   3.2299999999999995          1.2321593730828235E-016
   3.2400000000000002          2.0017178562464682E-017
   3.2500000000000000         -8.6941221946524900E-017
   3.2599999999999998         -2.0221266518894175E-016
   3.2699999999999996         -3.2814167549705922E-016
   3.2800000000000002         -4.6183020905118553E-016
   3.2900000000000000         -5.9634465266844398E-016
   3.2999999999999998         -7.3246591778664384E-016
   3.3099999999999996         -8.7649582365423870E-016
   3.3200000000000003         -1.0247673528843279E-015
   3.3300000000000001         -1.1753112597536635E-015
   3.3399999999999999         -1.3198769139603967E-015
   3.3499999999999996         -1.4549424583889625E-015
   3.3600000000000003         -1.5880154636882310E-015
   3.3700000000000001         -1.7294141675842987E-015
   3.3799999999999999         -1.8684119565913742E-015
   3.3899999999999997         -1.9818216214157261E-015
   3.4000000000000004         -2.0783965064133988E-015
   3.4100000000000001         -2.1673775292806998E-015
   3.4199999999999999         -2.2622490310214441E-015
   3.4299999999999997         -2.3430417863876379E-015
   3.4400000000000004         -2.3928900988500271E-015
   3.4500000000000002         -2.4130856936531745E-015
   3.4600000000000000         -2.4229381691373997E-015
   3.4699999999999998         -2.4211522001681141E-015
   3.4800000000000004         -2.4063875688645243E-015
   3.4900000000000002         -2.3725096391061413E-015
   3.5000000000000000         -2.3079998216014906E-015
   3.5099999999999998         -2.2229871480920760E-015
   3.5200000000000005         -2.1261479888148600E-015
   3.5300000000000002         -2.0110046593057153E-015
   3.5400000000000000         -1.8748758767701086E-015
   3.5499999999999998         -1.7227387009269876E-015
   3.5600000000000005         -1.5455177031421146E-015
   3.5700000000000003         -1.3696429583477839E-015
   3.5800000000000001         -1.1727347972863528E-015
   3.5899999999999999         -9.6645802831181547E-016
   3.5999999999999996         -7.5051232530481114E-016
   3.6099999999999994         -5.2696016055234478E-016
   3.6200000000000001         -3.0623041545924817E-016
   3.6299999999999999         -7.7458119001751571E-017
   3.6399999999999997          1.4668653206242936E-016
   3.6499999999999995          3.7523961904015451E-016
   3.6599999999999993          5.8975087175098368E-016
   3.6699999999999999          8.0116563670444715E-016
   3.6799999999999997          9.9718330144051796E-016
   3.6899999999999995          1.1881025160483875E-015
   3.7000000000000002          1.3674331552675158E-015
   3.7100000000000000          1.5389250339553975E-015
   3.7199999999999998          1.6955908714510136E-015
   3.7299999999999995          1.8382088792746540E-015
   3.7399999999999993          1.9489908361383862E-015
   3.7500000000000000          2.0351834265433261E-015
   3.7599999999999998          2.1179372749406504E-015
   3.7699999999999996          2.1835876223087790E-015
   3.7800000000000002          2.2430249830087973E-015
   3.7900000000000000          2.2727122172606397E-015
   3.7999999999999998          2.2666781663026369E-015
   3.8099999999999996          2.2476080665281535E-015
   3.8199999999999994          2.2166894581292403E-015
   3.8300000000000001          2.1803483565602418E-015
   3.8399999999999999          2.1281285636037773E-015
   3.8499999999999996          2.0615655382349822E-015
   3.8600000000000003          1.9830002677618305E-015
   3.8700000000000001          1.8875233492220362E-015
   3.8799999999999999          1.7894595920613272E-015
   3.8899999999999997          1.6844548234143429E-015
   3.8999999999999995          1.5790370203264538E-015
   3.9100000000000001          1.4618903520179343E-015
   3.9199999999999999          1.3430783110559945E-015
   3.9299999999999997          1.2115988923678666E-015
   3.9400000000000004          1.0895467386244423E-015
   3.9500000000000002          9.7301956903772090E-016
   3.9600000000000000          8.5714593830936545E-016
   3.9699999999999998          7.3650510027474438E-016
   3.9799999999999995          6.1494771965163496E-016
   3.9900000000000002          4.9382195525471081E-016
   4.0000000000000000          3.9094657449756463E-016
   4.0099999999999998          3.0571245481200216E-016
   4.0200000000000005          2.2271818140655569E-016
   4.0300000000000002          1.3863071933844893E-016
   4.0400000000000000          5.4102538748696376E-017
   4.0499999999999998         -2.8568532030368479E-017
   4.0599999999999996         -9.7143932319549960E-017
   4.0700000000000003         -1.5436795622372339E-016
   4.0800000000000001         -2.0415819398966647E-016
   4.0899999999999999         -2.4919836363163604E-016
   4.1000000000000005         -2.8858367514328690E-016
   4.1100000000000003         -3.2502536187477185E-016
   4.1200000000000001         -3.5999051136051494E-016
   4.1299999999999999         -3.9940933361314154E-016
   4.1399999999999997         -4.2853633497971398E-016
   4.1500000000000004         -4.5062105148325495E-016
   4.1600000000000001         -4.6529002100336413E-016
   4.1699999999999999         -4.7290357664975941E-016
   4.1800000000000006         -4.7229810691115019E-016
   4.1900000000000004         -4.8727952570967780E-016
   4.2000000000000002         -4.9842372643846581E-016
   4.2100000000000000         -5.0960281433676887E-016
   4.2199999999999998         -5.0572673863057398E-016
   4.2300000000000004         -5.0259674013223253E-016
   4.2400000000000002         -4.9323660254859888E-016