  -1.2000000000000000          0.0000000000000000     
  -1.1899999999999999          0.0000000000000000     
  -1.1799999999999999          0.0000000000000000     
  -1.1699999999999999          0.0000000000000000     
  -1.1599999999999999          0.0000000000000000     
  -1.1499999999999999          0.0000000000000000     
  -1.1399999999999999          0.0000000000000000     
  -1.1299999999999999          0.0000000000000000     
  -1.1199999999999999          0.0000000000000000     
  -1.1099999999999999          0.0000000000000000     
  -1.0999999999999999          0.0000000000000000     
  -1.0899999999999999          0.0000000000000000     
  -1.0800000000000001          0.0000000000000000     
  -1.0699999999999998          0.0000000000000000     
  -1.0600000000000001          0.0000000000000000     
  -1.0500000000000000          0.0000000000000000     
  -1.0400000000000000          0.0000000000000000     
  -1.0300000000000000          0.0000000000000000     
  -1.0200000000000000          0.0000000000000000     
  -1.0100000000000000          0.0000000000000000     
  -1.0000000000000000          0.0000000000000000     
 -0.98999999999999999          0.0000000000000000     
 -0.97999999999999998          0.0000000000000000     
 -0.96999999999999997          0.0000000000000000     
 -0.95999999999999996          0.0000000000000000     
 -0.94999999999999996          0.0000000000000000     
 -0.93999999999999995          0.0000000000000000     
 -0.92999999999999994          0.0000000000000000     
 -0.91999999999999993          0.0000000000000000     
 -0.90999999999999992          0.0000000000000000     
 -0.89999999999999991          0.0000000000000000     
 -0.88999999999999990          0.0000000000000000     
 -0.87999999999999989          0.0000000000000000     
 -0.86999999999999988          0.0000000000000000     
 -0.85999999999999988          0.0000000000000000     
 -0.84999999999999987          0.0000000000000000     
 -0.83999999999999986          0.0000000000000000     
 -0.82999999999999996          0.0000000000000000     
 -0.81999999999999995          0.0000000000000000     
 -0.80999999999999994          0.0000000000000000     
 -0.79999999999999993          0.0000000000000000     
 -0.78999999999999992          0.0000000000000000     
 -0.77999999999999992          0.0000000000000000     
 -0.76999999999999991          0.0000000000000000     
 -0.76000000000000001          0.0000000000000000     
 -0.75000000000000000          0.0000000000000000     
 -0.73999999999999999          0.0000000000000000     
 -0.72999999999999998          0.0000000000000000     
 -0.71999999999999997          0.0000000000000000     
 -0.70999999999999996          0.0000000000000000     
 -0.69999999999999996          0.0000000000000000     
 -0.68999999999999995          0.0000000000000000     
 -0.67999999999999994          0.0000000000000000     
 -0.66999999999999993          0.0000000000000000     
 -0.65999999999999992          0.0000000000000000     
 -0.64999999999999991          0.0000000000000000     
 -0.63999999999999990          0.0000000000000000     
 -0.62999999999999989          0.0000000000000000     
 -0.61999999999999988          0.0000000000000000     
 -0.60999999999999988          0.0000000000000000     
 -0.59999999999999998          0.0000000000000000     
 -0.58999999999999997          0.0000000000000000     
 -0.57999999999999996          0.0000000000000000     
 -0.56999999999999995          0.0000000000000000     
 -0.55999999999999994          0.0000000000000000     
 -0.54999999999999993          0.0000000000000000     
 -0.53999999999999992          0.0000000000000000     
 -0.52999999999999992          0.0000000000000000     
 -0.51999999999999991          0.0000000000000000     
 -0.50999999999999990          0.0000000000000000     
 -0.49999999999999989          0.0000000000000000     
 -0.48999999999999988          0.0000000000000000     
 -0.47999999999999987          0.0000000000000000     
 -0.46999999999999997          0.0000000000000000     
 -0.45999999999999996          0.0000000000000000     
 -0.44999999999999996          0.0000000000000000     
 -0.43999999999999995          0.0000000000000000     
 -0.42999999999999994          0.0000000000000000     
 -0.41999999999999993          0.0000000000000000     
 -0.40999999999999992          0.0000000000000000     
 -0.39999999999999991          0.0000000000000000     
 -0.38999999999999990          0.0000000000000000     
 -0.37999999999999989          0.0000000000000000     
 -0.36999999999999988          0.0000000000000000     
 -0.35999999999999988          0.0000000000000000     
 -0.34999999999999987          0.0000000000000000     
 -0.33999999999999986          0.0000000000000000     
 -0.32999999999999985          0.0000000000000000     
 -0.32000000000000006          0.0000000000000000     
 -0.31000000000000005          0.0000000000000000     
 -0.30000000000000004          0.0000000000000000     
 -0.29000000000000004          0.0000000000000000     
 -0.28000000000000003          0.0000000000000000     
 -0.27000000000000002          0.0000000000000000     
 -0.26000000000000001          0.0000000000000000     
 -0.25000000000000000          0.0000000000000000     
 -0.23999999999999999          0.0000000000000000     
 -0.22999999999999998          0.0000000000000000     
 -0.21999999999999997          0.0000000000000000     
 -0.20999999999999996          0.0000000000000000     
 -0.19999999999999996          0.0000000000000000     
 -0.18999999999999995          0.0000000000000000     
 -0.17999999999999994          0.0000000000000000     
 -0.16999999999999993          0.0000000000000000     
 -0.15999999999999992          0.0000000000000000     
 -0.14999999999999991          0.0000000000000000     
 -0.13999999999999990          0.0000000000000000     
 -0.12999999999999989          0.0000000000000000     
 -0.11999999999999988          0.0000000000000000     
 -0.10999999999999988          0.0000000000000000     
  -9.9999999999999867E-002     0.0000000000000000     
  -8.9999999999999858E-002     0.0000000000000000     
  -7.9999999999999849E-002     0.0000000000000000     
  -6.9999999999999840E-002     0.0000000000000000     
  -5.9999999999999831E-002     0.0000000000000000     
  -4.9999999999999822E-002     0.0000000000000000     
  -3.9999999999999813E-002     0.0000000000000000     
  -2.9999999999999805E-002     0.0000000000000000     
  -1.9999999999999796E-002     0.0000000000000000     
  -9.9999999999997868E-003     0.0000000000000000     
   0.0000000000000000          0.0000000000000000     
   1.0000000000000009E-002     0.0000000000000000     
   2.0000000000000018E-002     0.0000000000000000     
   3.0000000000000027E-002     0.0000000000000000     
   4.0000000000000036E-002     0.0000000000000000     
   5.0000000000000044E-002     0.0000000000000000     
   6.0000000000000053E-002     0.0000000000000000     
   7.0000000000000062E-002     0.0000000000000000     
   8.0000000000000071E-002     5.2359797379189655E-039
   9.0000000000000080E-002     2.7844013483500693E-038
  0.10000000000000009          5.4846104428859606E-038
  0.11000000000000010          5.6930664814001489E-038
  0.12000000000000011          1.7702850128345135E-038
  0.13000000000000012         -4.8484416792997656E-038
  0.14000000000000012         -3.2096257036610664E-037
  0.15000000000000013          2.9057979642881939E-037
  0.16000000000000014          1.9841891204117933E-036
  0.17000000000000015         -1.9925386889281077E-035
  0.18000000000000016          1.2650795329412973E-034
  0.19000000000000017         -5.4834671698799231E-034
  0.20000000000000018          3.6928687676959878E-033
  0.21000000000000019          5.6569655442864848E-033
  0.22000000000000020          1.0645803609452598E-032
  0.23000000000000020          1.4168327450009097E-032
  0.24000000000000021          2.1763268449700885E-032
  0.25000000000000000          3.1482700960784932E-032
  0.26000000000000001          4.3654036894163709E-032
  0.27000000000000002          6.2351911419875711E-032
  0.28000000000000003          8.6875621171603406E-032
  0.29000000000000004          1.1939867577516834E-031
  0.30000000000000004          1.6462040189409856E-031
  0.31000000000000005          2.2499996309767307E-031
  0.32000000000000006          3.0499879538017224E-031
  0.33000000000000007          4.1318579411629373E-031
  0.34000000000000008          5.5884506070860601E-031
  0.35000000000000009          7.5146678422926369E-031
  0.36000000000000010          1.0074547062253476E-030
  0.37000000000000011          1.3528404312144615E-030
  0.38000000000000012          1.8098322918480467E-030
  0.39000000000000012          2.3949679890094036E-030
  0.40000000000000013          3.1790426573920593E-030
  0.41000000000000014          4.2441436065817319E-030
  0.42000000000000015          5.5845562413215599E-030
  0.43000000000000016          7.3165205900265040E-030
  0.44000000000000017          9.7088994821985604E-030
  0.45000000000000018          1.2773366235018231E-029
  0.46000000000000019          1.6638840041087090E-029
  0.47000000000000020          2.1801961809333766E-029
  0.48000000000000020          2.8489619628901997E-029
  0.49000000000000021          3.7112904751054007E-029
  0.50000000000000022          4.8159804189347220E-029
  0.51000000000000023          6.2437926573305041E-029
  0.52000000000000024          8.0930176268576573E-029
  0.53000000000000025          1.0432048710960018E-028
  0.54000000000000026          1.3461110401480944E-028
  0.55000000000000027          1.7295071178834767E-028
  0.55999999999999983          2.2185193882097322E-028
  0.57000000000000006          2.8421441708870689E-028
  0.57999999999999985          3.6288824605681229E-028
  0.59000000000000008          4.6301575497330056E-028
  0.59999999999999987          5.8870979130853495E-028
  0.61000000000000010          7.4781596772871713E-028
  0.61999999999999988          9.4712795396442447E-028
  0.63000000000000012          1.1976426174051136E-027
  0.63999999999999990          1.5108055671172835E-027
  0.65000000000000013          1.9020884724196774E-027
  0.65999999999999992          2.3894213559085515E-027
  0.67000000000000015          2.9955253761028142E-027
  0.67999999999999994          3.7471490036280821E-027
  0.69000000000000017          4.6776081302203322E-027
  0.69999999999999996          5.8266622314304781E-027
  0.71000000000000019          7.2424503114044674E-027
  0.71999999999999997          8.9831728175037158E-027
  0.73000000000000020          1.1118450576473866E-026
  0.73999999999999999          1.3731862014553526E-026
  0.75000000000000022          1.6923332851349258E-026
  0.76000000000000001          2.0811646742111091E-026
  0.77000000000000024          2.5538914205575471E-026
  0.78000000000000003          3.1271752833835180E-026
  0.79000000000000026          3.8210043340238505E-026
  0.80000000000000004          4.6585989705576369E-026
  0.81000000000000028          5.6676506759484636E-026
  0.82000000000000006          6.8801428295223850E-026
  0.83000000000000029          8.3341213299215955E-026
  0.84000000000000008          1.0073222511156461E-025
  0.85000000000000031          1.2148809230025438E-025
  0.86000000000000010          1.4620163767258303E-025
  0.87000000000000033          1.7555751853857255E-025
  0.88000000000000012          2.1034416439513639E-025
  0.88999999999999990          2.5147278354351469E-025
  0.90000000000000013          2.9997791775709823E-025
  0.90999999999999992          3.5705279311074365E-025
  0.92000000000000015          4.2404295978972513E-025
  0.92999999999999994          5.0248748542012884E-025
  0.94000000000000017          5.9412063139827663E-025
  0.94999999999999996          7.0088689055173169E-025
  0.96000000000000019          8.2500261689751904E-025
  0.96999999999999997          9.6891850544532090E-025
  0.98000000000000020          1.1353707202448964E-024
  0.98999999999999999          1.3274157521773308E-024
   1.0000000000000002          1.5484344618671752E-024
   1.0100000000000000          1.8021434688617651E-024
   1.0200000000000002          2.0926259172065246E-024
   1.0300000000000000          2.4243722989968111E-024
   1.0400000000000003          2.8022504776635171E-024
   1.0500000000000000          3.2315444407650393E-024
   1.0600000000000003          3.7179755992317194E-024
   1.0700000000000001          4.2676842491345714E-024
   1.0800000000000003          4.8871491078729493E-024
   1.0900000000000001          5.5833926152251304E-024
   1.1000000000000003          6.3638628014277589E-024
   1.1100000000000001          7.2360861883775485E-024
   1.1200000000000003          8.2082515467011459E-024
   1.1300000000000001          9.2887085746498630E-024
   1.1400000000000003          1.0485894928465944E-023
   1.1500000000000001          1.1808712903464807E-023
   1.1600000000000004          1.3265832080994832E-023
   1.1700000000000002          1.4865993828746772E-023
   1.1800000000000004          1.6617965546821255E-023
   1.1900000000000002          1.8529784150120671E-023
   1.2000000000000000          2.0609596994074143E-023
   1.2100000000000002          2.2864852503348768E-023
   1.2200000000000000          2.5301752702381394E-023
   1.2299999999999998          2.7925761241801582E-023
   1.2400000000000000          3.0741941030899039E-023
   1.2500000000000002          3.3752366773854497E-023
   1.2600000000000000          3.6958076611619227E-023
   1.2699999999999998          4.0359379777668076E-023
   1.2800000000000000          4.3953272289673961E-023
   1.2900000000000003          4.7735396479996443E-023
   1.3000000000000000          5.1696775111534106E-023
   1.3099999999999998          5.5828241620568281E-023
   1.3200000000000001          6.0114892846877534E-023
   1.3300000000000003          6.4539695705796332E-023
   1.3400000000000001          6.9084582127151494E-023
   1.3499999999999999          7.3723866799869022E-023
   1.3600000000000001          7.8428633238607137E-023
   1.3700000000000003          8.3167055639005600E-023
   1.3800000000000001          8.7907484901546946E-023
   1.3899999999999999          9.2605643841342929E-023
   1.4000000000000001          9.7220757815924486E-023
   1.4100000000000004          1.0170461164676451E-022
   1.4200000000000002          1.0600818867265618E-022
   1.4299999999999999          1.1008049061379878E-022
   1.4400000000000002          1.1386130529501860E-022
   1.4500000000000004          1.1729271139321068E-022
   1.4600000000000002          1.2031589143928175E-022
   1.4700000000000000          1.2286607048658230E-022
   1.4800000000000002          1.2488016490624362E-022
   1.4900000000000004          1.2629849894850755E-022
   1.5000000000000002          1.2705792587563296E-022
   1.5100000000000000          1.2709691453701260E-022
   1.5200000000000002          1.2635864170392160E-022
   1.5300000000000005          1.2478709194120203E-022
   1.5400000000000003          1.2233338111627914E-022
   1.5500000000000000          1.1894929405062584E-022
   1.5600000000000003          1.1460442488951127E-022
   1.5700000000000005          1.0925646544486664E-022
   1.5800000000000003          1.0288830690137950E-022
   1.5900000000000001          9.5486052685343481E-023
   1.6000000000000003          8.7039889367097636E-023
   1.6100000000000005          7.7560173112605704E-023
   1.6200000000000003          6.7061633532689973E-023
   1.6300000000000001          5.5566093675432476E-023
   1.6400000000000003          4.3118057917662163E-023
   1.6500000000000006          2.9770247411396764E-023
   1.6600000000000004          1.5591722195722947E-023
   1.6700000000000002          6.3070652106822986E-025
   1.6800000000000004         -1.5002716045396057E-023
   1.6899999999999997         -3.1225216154099156E-023
   1.7000000000000000         -4.7923997345216683E-023
   1.7099999999999997         -6.4995884500954781E-023
   1.7200000000000000         -8.2306528298267070E-023
   1.7299999999999998         -9.9720064801169147E-023
   1.7400000000000000         -1.1710974615029734E-022
   1.7499999999999998         -1.3432859809267811E-022
   1.7600000000000000         -1.5123549025692380E-022
   1.7699999999999998         -1.6768231874124460E-022
   1.7800000000000000         -1.8353154406909341E-022
   1.7899999999999998         -1.9864047707993386E-022
   1.8000000000000000         -2.1287006368428082E-022
   1.8099999999999998         -2.2609503277038520E-022
   1.8200000000000001         -2.3816627069449851E-022
   1.8299999999999998         -2.4899244629645787E-022
   1.8400000000000001         -2.5845849948007138E-022
   1.8499999999999999         -2.6648541793707209E-022
   1.8600000000000001         -2.7297578681199607E-022
   1.8699999999999999         -2.7787505479552547E-022
   1.8800000000000001         -2.8112263737013933E-022
   1.8899999999999999         -2.8270200001126422E-022
   1.9000000000000001         -2.8258191644882785E-022
   1.9099999999999999         -2.8077175203949703E-022
   1.9200000000000002         -2.7728912678045076E-022
   1.9299999999999999         -2.7215847642708916E-022
   1.9400000000000002         -2.6542963174507325E-022
   1.9500000000000000         -2.5716070338412522E-022
   1.9600000000000002         -2.4743597955424613E-022
   1.9700000000000000         -2.3635474313352346E-022
   1.9800000000000002         -2.2402352189859828E-022
   1.9900000000000000         -2.1053859474523098E-022
   2.0000000000000000         -1.9603227573533249E-022
   2.0099999999999998         -1.8065564750947072E-022
   2.0200000000000005         -1.6453949689484409E-022
   2.0300000000000002         -1.4783067823756853E-022
   2.0400000000000000         -1.3066564554158556E-022
   2.0499999999999998         -1.1319235124739118E-022
   2.0600000000000005         -9.5561701290710556E-023
   2.0700000000000003         -7.7920619437419289E-023
   2.0800000000000001         -6.0403615938188424E-023
   2.0899999999999999         -4.3154146726354214E-023
   2.1000000000000005         -2.6292907520415472E-023
   2.1100000000000003         -9.9421315287752897E-024
   2.1200000000000001          5.7757914512735564E-024
   2.1299999999999999          2.0776433186919335E-023
   2.1400000000000006          3.4955262902902567E-023
   2.1500000000000004          4.8240261148450649E-023
   2.1600000000000001          6.0573555509834755E-023
   2.1699999999999999          7.1881939695050377E-023
   2.1800000000000006          8.2136033368543463E-023
   2.1900000000000004          9.1305531649779043E-023
   2.2000000000000002          9.9362849650623347E-023
   2.2100000000000000          1.0631244916835631E-022
   2.2200000000000006          1.1213883697479938E-022
   2.2300000000000004          1.1686658766487201E-022
   2.2400000000000002          1.2051951852702464E-022
   2.2500000000000000          1.2314121254854891E-022
   2.2600000000000007          1.2475552488321870E-022
   2.2700000000000005          1.2541405334512272E-022
   2.2800000000000002          1.2516799185156618E-022
   2.2900000000000000          1.2409480023255455E-022
   2.3000000000000007          1.2222946604695619E-022
   2.3100000000000005          1.1965140549982151E-022
   2.3199999999999994          1.1644551264632676E-022
   2.3300000000000001          1.1265881621819762E-022
   2.3399999999999999          1.0839158359193129E-022
   2.3499999999999996          1.0368674142254627E-022
   2.3599999999999994          9.8644973605097743E-023
   2.3700000000000001          9.3313479265266881E-023
   2.3799999999999999          8.7766556478551023E-023
   2.3899999999999997          8.2058289548612122E-023
   2.3999999999999995          7.6256186036275371E-023
   2.4100000000000001          7.0429198695544329E-023
   2.4199999999999999          6.4612283530851149E-023
   2.4299999999999997          5.8878375466048944E-023
   2.4399999999999995          5.3251903945650599E-023
   2.4500000000000002          4.7810865225077127E-023
   2.4600000000000000          4.2565561827750712E-023
   2.4699999999999998          3.7549775933076541E-023
   2.4799999999999995          3.2798457234599524E-023
   2.4900000000000002          2.8336098285704964E-023
   2.5000000000000000          2.4171212473282006E-023
   2.5099999999999998          2.0323410879434444E-023
   2.5199999999999996          1.6803030737464294E-023
   2.5300000000000002          1.3627893992942309E-023
   2.5400000000000000          1.0798963056172860E-023
   2.5499999999999998          8.2988411776131060E-024
   2.5599999999999996          6.1330527501823113E-024
   2.5700000000000003          4.2991582215310794E-024
   2.5800000000000001          2.7960009243571299E-024
   2.5899999999999999          1.6001715099056426E-024
   2.5999999999999996          6.8022968028000112E-025
   2.6100000000000003          5.4371800321074874E-026
   2.6200000000000001         -2.9983476415470390E-025
   2.6299999999999999         -4.1701263140239547E-025
   2.6399999999999997         -3.1165323171769222E-025
   2.6500000000000004         -2.8689946676514893E-027
   2.6600000000000001          5.0355560308579809E-025
   2.6699999999999999          1.1697005663335307E-024
   2.6799999999999997          1.9673897125524840E-024
   2.6900000000000004          2.8963004469362292E-024
   2.7000000000000002          3.9257418401443034E-024
   2.7100000000000000          5.0293018429937756E-024
   2.7199999999999998          6.2002952537433504E-024
   2.7300000000000004          7.4020680448623859E-024
   2.7400000000000002          8.6312655853514300E-024
   2.7500000000000000          9.8609269760527440E-024
   2.7599999999999998          1.1083350567948655E-023
   2.7700000000000005          1.2283840671235801E-023
   2.7800000000000002          1.3446910368622884E-023
   2.7900000000000000          1.4551350345812130E-023
   2.7999999999999998          1.5588077658340825E-023
   2.8099999999999996          1.6572487715635263E-023
   2.8200000000000003          1.7479138175780256E-023
   2.8300000000000001          1.8305563059586082E-023
   2.8399999999999999          1.9032567803506904E-023
   2.8500000000000005          1.9662438526446052E-023
   2.8600000000000003          2.0213948540225976E-023
   2.8700000000000001          2.0678183716617679E-023
   2.8799999999999999          2.1036833016289170E-023
   2.8899999999999997          2.1311874104059907E-023
   2.9000000000000004          2.1485112692011873E-023
   2.9100000000000001          2.1582541746972099E-023
   2.9199999999999999          2.1582234091219063E-023
   2.9300000000000006          2.1489378851787308E-023
   2.9400000000000004          2.1313768947954248E-023
   2.9500000000000002          2.1068567312784401E-023
   2.9600000000000000          2.0763030440139630E-023
   2.9699999999999998          2.0383010898545701E-023
   2.9799999999999995          1.9937367595968248E-023
   2.9899999999999993          1.9440918495650939E-023
   3.0000000000000000          1.8899763070112946E-023
   3.0099999999999998          1.8309852885188674E-023
   3.0199999999999996          1.7678027364926388E-023
   3.0299999999999994          1.7006548962402263E-023
   3.0400000000000000          1.6302752506313043E-023
   3.0499999999999998          1.5563544084188452E-023
   3.0599999999999996          1.4796993743088901E-023
   3.0699999999999994          1.4014492634485781E-023
   3.0800000000000001          1.3203631976339965E-023
   3.0899999999999999          1.2381930791634603E-023
   3.0999999999999996          1.1546927834345404E-023
   3.1099999999999994          1.0699904214582447E-023
   3.1200000000000001          9.8499602317483615E-024
   3.1299999999999999          8.9693106270394536E-024
   3.1399999999999997          8.0912421752124289E-024
   3.1499999999999995          7.1959781333733966E-024
   3.1600000000000001          6.3091801467691962E-024
   3.1699999999999999          5.4150978185661849E-024
   3.1799999999999997          4.5218516829227080E-024
   3.1899999999999995          3.6325553738316726E-024
   3.2000000000000002          2.7537929216232797E-024
   3.2100000000000000          1.8669235431071568E-024
   3.2199999999999998          9.9230044128368485E-025
   3.2299999999999995          1.2336686315365137E-025
   3.2400000000000002         -7.3936826506551129E-025
   3.2500000000000000         -1.5991920404841976E-024
   3.2599999999999998         -2.4450798977588626E-024
   3.2699999999999996         -3.2625500269990723E-024
   3.2800000000000002         -4.0365192104817744E-024
   3.2900000000000000         -4.7906485421981681E-024
   3.2999999999999998         -5.5008663260558868E-024
   3.3099999999999996         -6.1676506117634944E-024
   3.3200000000000003         -6.7873118968672723E-024
   3.3300000000000001         -7.3552515167202345E-024
   3.3399999999999999         -7.8784493126117766E-024
   3.3499999999999996         -8.3505817755256470E-024
   3.3600000000000003         -8.7717159586387894E-024
   3.3700000000000001         -9.1201944746592661E-024
   3.3799999999999999         -9.4138455800450721E-024
   3.3899999999999997         -9.6361765598507516E-024
   3.4000000000000004         -9.7821371265610798E-024
   3.4100000000000001         -9.8620653023389779E-024
   3.4199999999999999         -9.8752873999713873E-024
   3.4299999999999997         -9.8134154614530929E-024
   3.4400000000000004         -9.6716106139914690E-024
   3.4500000000000002         -9.4737619323793236E-024
   3.4600000000000000         -9.2142882257122180E-024
   3.4699999999999998         -8.8889596218163570E-024
   3.4800000000000004         -8.4978116194324757E-024
   3.4900000000000002         -8.0437401269436405E-024
   3.5000000000000000         -7.5508756105796567E-024
   3.5099999999999998         -7.0196101342104193E-024
   3.5200000000000005         -6.4433752475086055E-024
   3.5300000000000002         -5.8399873740186319E-024
   3.5400000000000000         -5.2154351513024838E-024
   3.5499999999999998         -4.5810714710776493E-024
   3.5600000000000005         -3.9548693457782314E-024
   3.5700000000000003         -3.3160990885368324E-024
   3.5800000000000001         -2.6903949316838353E-024
   3.5899999999999999         -2.0687991624252292E-024
   3.5999999999999996         -1.4768166399029409E-024
   3.6099999999999994         -9.1162462258286349E-025
   3.6200000000000001         -3.9471754867619977E-025
   3.6299999999999999          9.5909129537043344E-026
   3.6399999999999997          5.4589076033680864E-025
   3.6499999999999995          9.2947269917110204E-025
   3.6599999999999993          1.2546495459503211E-024
   3.6699999999999999          1.5030460677863133E-024
   3.6799999999999997          1.6948566108146708E-024
   3.6899999999999995          1.8347226353864877E-024
   3.7000000000000002          1.9054294216128048E-024
   3.7100000000000000          1.9191954388393641E-024
   3.7199999999999998          1.8548305026453450E-024
   3.7299999999999995          1.7392231342004320E-024
   3.7399999999999993          1.5676643269385215E-024
   3.7500000000000000          1.3288686367495216E-024
   3.7599999999999998          1.0454222360336546E-024
   3.7699999999999996          7.1158995809854407E-025
   3.7800000000000002          3.3522920268683724E-025
   3.7900000000000000         -8.3264342501787661E-026
   3.7999999999999998         -5.2147492367453941E-025
   3.8099999999999996         -9.9195758261275316E-025
   3.8199999999999994         -1.4712280534275158E-024
   3.8300000000000001         -1.9606419935844497E-024
   3.8399999999999999         -2.4456991535694611E-024
   3.8499999999999996         -2.9252173267084632E-024
   3.8600000000000003         -3.3944645308614877E-024
   3.8700000000000001         -3.8538363797725030E-024
   3.8799999999999999         -4.2880301551715792E-024
   3.8899999999999997         -4.6887636064148010E-024
   3.8999999999999995         -5.0376207756697838E-024
   3.9100000000000001         -5.3511736584029581E-024
   3.9199999999999999         -5.6079995534416894E-024
   3.9299999999999997         -5.8120912802577539E-024
   3.9400000000000004         -5.9654529399808656E-024
   3.9500000000000002         -6.0466780030869471E-024
   3.9600000000000000         -6.0742869514783246E-024
   3.9699999999999998         -6.0327546081097962E-024
   3.9799999999999995         -5.9347627008936947E-024
   3.9900000000000002         -5.7762801506043408E-024
   4.0000000000000000         -5.5545530438216080E-024
   4.0099999999999998         -5.2610936316357707E-024
   4.0200000000000005         -4.9017753779166521E-024
   4.0300000000000002         -4.4891462986531500E-024
   4.0400000000000000         -4.0238260440863157E-024
   4.0499999999999998         -3.5186978960897661E-024
   4.0599999999999996         -2.9533305544335033E-024
   4.0700000000000003         -2.3656611289105110E-024
   4.0800000000000001         -1.7387961632354811E-024
   4.0899999999999999         -1.0823747488093093E-024
   4.1000000000000005         -4.0160580814487979E-025
   4.1100000000000003          3.0628772031512164E-025
   4.1200000000000001          1.0133824531528769E-024
   4.1299999999999999          1.7277690710718492E-024
   4.1399999999999997          2.4339532119059466E-024
   4.1500000000000004          3.1279638484658996E-024
   4.1600000000000001          3.7879546612729702E-024
   4.1699999999999999          4.4230859031585847E-024
   4.1800000000000006          5.0257267253713140E-024
   4.1900000000000004          5.5878847836499114E-024
   4.2000000000000002          6.0977208535288200E-024
   4.2100000000000000          6.5564529362457010E-024
   4.2199999999999998          6.9698700875535189E-024
   4.2300000000000004          7.3158061048764683E-024
   4.2400000000000002          7.6016490650223967E-024