  -1.2000000000000000          0.0000000000000000     
  -1.1899999999999999          0.0000000000000000     
  -1.1799999999999999          0.0000000000000000     
  -1.1699999999999999          0.0000000000000000     
  -1.1599999999999999          0.0000000000000000     
  -1.1499999999999999          0.0000000000000000     
  -1.1399999999999999          0.0000000000000000     
  -1.1299999999999999          0.0000000000000000     
  -1.1199999999999999          0.0000000000000000     
  -1.1099999999999999          0.0000000000000000     
  -1.0999999999999999          0.0000000000000000     
  -1.0899999999999999          0.0000000000000000     
  -1.0800000000000001          0.0000000000000000     
  -1.0699999999999998          0.0000000000000000     
  -1.0600000000000001          0.0000000000000000     
  -1.0500000000000000          0.0000000000000000     
  -1.0400000000000000          0.0000000000000000     
  -1.0300000000000000          0.0000000000000000     
  -1.0200000000000000          0.0000000000000000     
  -1.0100000000000000          0.0000000000000000     
  -1.0000000000000000          0.0000000000000000     
 -0.98999999999999999          0.0000000000000000     
 -0.97999999999999998          0.0000000000000000     
 -0.96999999999999997          0.0000000000000000     
 -0.95999999999999996          0.0000000000000000     
 -0.94999999999999996          0.0000000000000000     
 -0.93999999999999995          0.0000000000000000     
 -0.92999999999999994          0.0000000000000000     
 -0.91999999999999993          0.0000000000000000     
 -0.90999999999999992          0.0000000000000000     
 -0.89999999999999991          0.0000000000000000     
 -0.88999999999999990          0.0000000000000000     
 -0.87999999999999989          0.0000000000000000     
 -0.86999999999999988          0.0000000000000000     
 -0.85999999999999988          0.0000000000000000     
 -0.84999999999999987          0.0000000000000000     
 -0.83999999999999986          0.0000000000000000     
 -0.82999999999999996          0.0000000000000000     
 -0.81999999999999995          0.0000000000000000     
 -0.80999999999999994          0.0000000000000000     
 -0.79999999999999993          0.0000000000000000     
 -0.78999999999999992          0.0000000000000000     
 -0.77999999999999992          0.0000000000000000     
 -0.76999999999999991          0.0000000000000000     
 -0.76000000000000001          0.0000000000000000     
 -0.75000000000000000          0.0000000000000000     
 -0.73999999999999999          0.0000000000000000     
 -0.72999999999999998          0.0000000000000000     
 -0.71999999999999997          0.0000000000000000     
 -0.70999999999999996          0.0000000000000000     
 -0.69999999999999996          0.0000000000000000     
 -0.68999999999999995          0.0000000000000000     
 -0.67999999999999994          0.0000000000000000     
 -0.66999999999999993          0.0000000000000000     
 -0.65999999999999992          0.0000000000000000     
 -0.64999999999999991          0.0000000000000000     
 -0.63999999999999990          0.0000000000000000     
 -0.62999999999999989          0.0000000000000000     
 -0.61999999999999988          0.0000000000000000     
 -0.60999999999999988          0.0000000000000000     
 -0.59999999999999998          0.0000000000000000     
 -0.58999999999999997          0.0000000000000000     
 -0.57999999999999996          0.0000000000000000     
 -0.56999999999999995          0.0000000000000000     
 -0.55999999999999994          0.0000000000000000     
 -0.54999999999999993          0.0000000000000000     
 -0.53999999999999992          0.0000000000000000     
 -0.52999999999999992          0.0000000000000000     
 -0.51999999999999991          0.0000000000000000     
 -0.50999999999999990          0.0000000000000000     
 -0.49999999999999989          0.0000000000000000     
 -0.48999999999999988          0.0000000000000000     
 -0.47999999999999987          0.0000000000000000     
 -0.46999999999999997          0.0000000000000000     
 -0.45999999999999996          0.0000000000000000     
 -0.44999999999999996          0.0000000000000000     
 -0.43999999999999995          0.0000000000000000     
 -0.42999999999999994          0.0000000000000000     
 -0.41999999999999993          0.0000000000000000     
 -0.40999999999999992          0.0000000000000000     
 -0.39999999999999991          0.0000000000000000     
 -0.38999999999999990          0.0000000000000000     
 -0.37999999999999989          0.0000000000000000     
 -0.36999999999999988          0.0000000000000000     
 -0.35999999999999988          0.0000000000000000     
 -0.34999999999999987          0.0000000000000000     
 -0.33999999999999986          0.0000000000000000     
 -0.32999999999999985          0.0000000000000000     
 -0.32000000000000006          0.0000000000000000     
 -0.31000000000000005          0.0000000000000000     
 -0.30000000000000004          0.0000000000000000     
 -0.29000000000000004          0.0000000000000000     
 -0.28000000000000003          0.0000000000000000     
 -0.27000000000000002          0.0000000000000000     
 -0.26000000000000001          0.0000000000000000     
 -0.25000000000000000          0.0000000000000000     
 -0.23999999999999999          0.0000000000000000     
 -0.22999999999999998          0.0000000000000000     
 -0.21999999999999997          0.0000000000000000     
 -0.20999999999999996          0.0000000000000000     
 -0.19999999999999996          0.0000000000000000     
 -0.18999999999999995          0.0000000000000000     
 -0.17999999999999994          0.0000000000000000     
 -0.16999999999999993          0.0000000000000000     
 -0.15999999999999992          0.0000000000000000     
 -0.14999999999999991          0.0000000000000000     
 -0.13999999999999990          0.0000000000000000     
 -0.12999999999999989          0.0000000000000000     
 -0.11999999999999988          0.0000000000000000     
 -0.10999999999999988          0.0000000000000000     
  -9.9999999999999867E-002     0.0000000000000000     
  -8.9999999999999858E-002     0.0000000000000000     
  -7.9999999999999849E-002     0.0000000000000000     
  -6.9999999999999840E-002     0.0000000000000000     
  -5.9999999999999831E-002     0.0000000000000000     
  -4.9999999999999822E-002     0.0000000000000000     
  -3.9999999999999813E-002     0.0000000000000000     
  -2.9999999999999805E-002     0.0000000000000000     
  -1.9999999999999796E-002     0.0000000000000000     
  -9.9999999999997868E-003     0.0000000000000000     
   0.0000000000000000          0.0000000000000000     
   1.0000000000000009E-002     0.0000000000000000     
   2.0000000000000018E-002     0.0000000000000000     
   3.0000000000000027E-002     0.0000000000000000     
   4.0000000000000036E-002     0.0000000000000000     
   5.0000000000000044E-002     0.0000000000000000     
   6.0000000000000053E-002     0.0000000000000000     
   7.0000000000000062E-002     0.0000000000000000     
   8.0000000000000071E-002     0.0000000000000000     
   9.0000000000000080E-002     0.0000000000000000     
  0.10000000000000009          0.0000000000000000     
  0.11000000000000010          0.0000000000000000     
  0.12000000000000011          0.0000000000000000     
  0.13000000000000012          0.0000000000000000     
  0.14000000000000012          0.0000000000000000     
  0.15000000000000013          0.0000000000000000     
  0.16000000000000014          0.0000000000000000     
  0.17000000000000015          0.0000000000000000     
  0.18000000000000016          0.0000000000000000     
  0.19000000000000017          0.0000000000000000     
  0.20000000000000018          0.0000000000000000     
  0.21000000000000019          0.0000000000000000     
  0.22000000000000020          0.0000000000000000     
  0.23000000000000020          0.0000000000000000     
  0.24000000000000021          0.0000000000000000     
  0.25000000000000000          0.0000000000000000     
  0.26000000000000001          0.0000000000000000     
  0.27000000000000002          0.0000000000000000     
  0.28000000000000003          0.0000000000000000     
  0.29000000000000004          0.0000000000000000     
  0.30000000000000004          0.0000000000000000     
  0.31000000000000005          0.0000000000000000     
  0.32000000000000006          0.0000000000000000     
  0.33000000000000007          0.0000000000000000     
  0.34000000000000008          0.0000000000000000     
  0.35000000000000009          0.0000000000000000     
  0.36000000000000010          0.0000000000000000     
  0.37000000000000011          0.0000000000000000     
  0.38000000000000012          0.0000000000000000     
  0.39000000000000012          0.0000000000000000     
  0.40000000000000013          0.0000000000000000     
  0.41000000000000014          0.0000000000000000     
  0.42000000000000015          0.0000000000000000     
  0.43000000000000016          0.0000000000000000     
  0.44000000000000017          0.0000000000000000     
  0.45000000000000018          0.0000000000000000     
  0.46000000000000019          0.0000000000000000     
  0.47000000000000020          0.0000000000000000     
  0.48000000000000020          0.0000000000000000     
  0.49000000000000021          0.0000000000000000     
  0.50000000000000022          0.0000000000000000     
  0.51000000000000023          0.0000000000000000     
  0.52000000000000024          0.0000000000000000     
  0.53000000000000025          0.0000000000000000     
  0.54000000000000026          0.0000000000000000     
  0.55000000000000027          0.0000000000000000     
  0.55999999999999983          0.0000000000000000     
  0.57000000000000006          0.0000000000000000     
  0.57999999999999985          0.0000000000000000     
  0.59000000000000008          0.0000000000000000     
  0.59999999999999987          0.0000000000000000     
  0.61000000000000010          0.0000000000000000     
  0.61999999999999988          0.0000000000000000     
  0.63000000000000012          0.0000000000000000     
  0.63999999999999990          0.0000000000000000     
  0.65000000000000013          0.0000000000000000     
  0.65999999999999992          0.0000000000000000     
  0.67000000000000015          0.0000000000000000     
  0.67999999999999994          0.0000000000000000     
  0.69000000000000017          0.0000000000000000     
  0.69999999999999996          0.0000000000000000     
  0.71000000000000019          0.0000000000000000     
  0.71999999999999997          0.0000000000000000     
  0.73000000000000020          0.0000000000000000     
  0.73999999999999999          0.0000000000000000     
  0.75000000000000022          0.0000000000000000     
  0.76000000000000001          0.0000000000000000     
  0.77000000000000024          0.0000000000000000     
  0.78000000000000003          0.0000000000000000     
  0.79000000000000026          0.0000000000000000     
  0.80000000000000004          0.0000000000000000     
  0.81000000000000028          0.0000000000000000     
  0.82000000000000006          0.0000000000000000     
  0.83000000000000029          0.0000000000000000     
  0.84000000000000008          0.0000000000000000     
  0.85000000000000031          0.0000000000000000     
  0.86000000000000010          0.0000000000000000     
  0.87000000000000033          0.0000000000000000     
  0.88000000000000012          0.0000000000000000     
  0.88999999999999990          0.0000000000000000     
  0.90000000000000013          0.0000000000000000     
  0.90999999999999992          0.0000000000000000     
  0.92000000000000015          0.0000000000000000     
  0.92999999999999994          0.0000000000000000     
  0.94000000000000017          0.0000000000000000     
  0.94999999999999996          0.0000000000000000     
  0.96000000000000019          0.0000000000000000     
  0.96999999999999997          0.0000000000000000     
  0.98000000000000020          0.0000000000000000     
  0.98999999999999999          0.0000000000000000     
   1.0000000000000002          0.0000000000000000     
   1.0100000000000000          0.0000000000000000     
   1.0200000000000002          0.0000000000000000     
   1.0300000000000000          0.0000000000000000     
   1.0400000000000003          0.0000000000000000     
   1.0500000000000000          0.0000000000000000     
   1.0600000000000003          0.0000000000000000     
   1.0700000000000001          0.0000000000000000     
   1.0800000000000003          0.0000000000000000     
   1.0900000000000001          0.0000000000000000     
   1.1000000000000003          0.0000000000000000     
   1.1100000000000001          0.0000000000000000     
   1.1200000000000003          0.0000000000000000     
   1.1300000000000001          0.0000000000000000     
   1.1400000000000003          0.0000000000000000     
   1.1500000000000001          0.0000000000000000     
   1.1600000000000004          0.0000000000000000     
   1.1700000000000002          0.0000000000000000     
   1.1800000000000004          0.0000000000000000     
   1.1900000000000002          0.0000000000000000     
   1.2000000000000000          0.0000000000000000     
   1.2100000000000002          0.0000000000000000     
   1.2200000000000000          0.0000000000000000     
   1.2299999999999998          0.0000000000000000     
   1.2400000000000000          0.0000000000000000     
   1.2500000000000002          0.0000000000000000     
   1.2600000000000000          0.0000000000000000     
   1.2699999999999998          0.0000000000000000     
   1.2800000000000000          0.0000000000000000     
   1.2900000000000003          0.0000000000000000     
   1.3000000000000000          0.0000000000000000     
   1.3099999999999998          0.0000000000000000     
   1.3200000000000001          0.0000000000000000     
   1.3300000000000003          0.0000000000000000     
   1.3400000000000001          0.0000000000000000     
   1.3499999999999999          0.0000000000000000     
   1.3600000000000001          0.0000000000000000     
   1.3700000000000003          0.0000000000000000     
   1.3800000000000001          0.0000000000000000     
   1.3899999999999999          0.0000000000000000     
   1.4000000000000001          0.0000000000000000     
   1.4100000000000004          0.0000000000000000     
   1.4200000000000002          0.0000000000000000     
   1.4299999999999999          0.0000000000000000     
   1.4400000000000002          0.0000000000000000     
   1.4500000000000004          0.0000000000000000     
   1.4600000000000002          0.0000000000000000     
   1.4700000000000000          0.0000000000000000     
   1.4800000000000002          0.0000000000000000     
   1.4900000000000004          0.0000000000000000     
   1.5000000000000002          0.0000000000000000     
   1.5100000000000000          0.0000000000000000     
   1.5200000000000002          0.0000000000000000     
   1.5300000000000005          0.0000000000000000     
   1.5400000000000003          0.0000000000000000     
   1.5500000000000000          0.0000000000000000     
   1.5600000000000003          0.0000000000000000     
   1.5700000000000005          0.0000000000000000     
   1.5800000000000003          0.0000000000000000     
   1.5900000000000001          0.0000000000000000     
   1.6000000000000003          0.0000000000000000     
   1.6100000000000005          0.0000000000000000     
   1.6200000000000003          0.0000000000000000     
   1.6300000000000001          0.0000000000000000     
   1.6400000000000003          0.0000000000000000     
   1.6500000000000006          0.0000000000000000     
   1.6600000000000004          0.0000000000000000     
   1.6700000000000002          0.0000000000000000     
   1.6800000000000004          0.0000000000000000     
   1.6899999999999997          0.0000000000000000     
   1.7000000000000000          0.0000000000000000     
   1.7099999999999997          0.0000000000000000     
   1.7200000000000000          0.0000000000000000     
   1.7299999999999998          0.0000000000000000     
   1.7400000000000000          0.0000000000000000     
   1.7499999999999998          0.0000000000000000     
   1.7600000000000000          0.0000000000000000     
   1.7699999999999998          0.0000000000000000     
   1.7800000000000000          0.0000000000000000     
   1.7899999999999998          0.0000000000000000     
   1.8000000000000000         -5.3249341644343049E-044
   1.8099999999999998          1.7631151370808308E-030
   1.8200000000000001         -9.9480089510089275E-030
   1.8299999999999998          1.0807507098522264E-029
   1.8400000000000001          3.1180986355561635E-029
   1.8499999999999999         -1.5584694924941997E-028
   1.8600000000000001          2.1509847287798493E-028
   1.8699999999999999          4.6521757438222127E-028
   1.8800000000000001         -2.3032371464551893E-027
   1.8899999999999999          1.5872102894990362E-027
   1.9000000000000001          1.0205873324229263E-026
   1.9099999999999999         -2.3418724181789650E-026
   1.9200000000000002         -2.8777504074018604E-026
   1.9299999999999999          2.1326770756178874E-025
   1.9400000000000002          5.7332196850547862E-025
   1.9500000000000000          6.4611060796448056E-025
   1.9600000000000002          6.4290709313218461E-025
   1.9700000000000000          1.0244206879767951E-024
   1.9800000000000002          1.5312058383047614E-024
   1.9900000000000000          1.9627671848631151E-024
   2.0000000000000000          2.7225418024324967E-024
   2.0099999999999998          3.8335094063972205E-024
   2.0200000000000005          5.1106760008109439E-024
   2.0300000000000002          6.9243914675066223E-024
   2.0400000000000000          9.4557790591839054E-024
   2.0499999999999998          1.2641978000179804E-023
   2.0600000000000005          1.6972309243672050E-023
   2.0700000000000003          2.2805271416899236E-023
   2.0800000000000001          3.0362060328824429E-023
   2.0899999999999999          4.0443447106615669E-023
   2.1000000000000005          5.3773069635850292E-023
   2.1100000000000003          7.1195378272018426E-023
   2.1200000000000001          9.4125841914576237E-023
   2.1299999999999999          1.2419780653411469E-022
   2.1400000000000006          1.6340026815173460E-022
   2.1500000000000004          2.1454207015011486E-022
   2.1600000000000001          2.8112117324429924E-022
   2.1699999999999999          3.6738257049391409E-022
   2.1800000000000006          4.7917057262516910E-022
   2.1900000000000004          6.2371291257831643E-022
   2.2000000000000002          8.0995083015394416E-022
   2.2100000000000000          1.0496423160770332E-021
   2.2200000000000006          1.3570835999212035E-021
   2.2300000000000004          1.7506712209187968E-021
   2.2400000000000002          2.2540247600447357E-021
   2.2500000000000000          2.8954972666278566E-021
   2.2600000000000007          3.7112803158480552E-021
   2.2700000000000005          4.7463974938494350E-021
   2.2800000000000002          6.0576306299365697E-021
   2.2900000000000000          7.7140674806128936E-021
   2.3000000000000007          9.8024586126199055E-021
   2.3100000000000005          1.2428714244416720E-020
   2.3199999999999994          1.5724021666862553E-020
   2.3300000000000001          1.9851106855050906E-020
   2.3399999999999999          2.5004278896955745E-020
   2.3499999999999996          3.1425121383469438E-020
   2.3599999999999994          3.9414732904322689E-020
   2.3700000000000001          4.9317513015608791E-020
   2.3799999999999999          6.1574361908515580E-020
   2.3899999999999997          7.6707043141456485E-020
   2.3999999999999995          9.5346233463889171E-020
   2.4100000000000001          1.1828362227020931E-019
   2.4199999999999999          1.4638939710247416E-019
   2.4299999999999997          1.8075126815444827E-019
   2.4399999999999995          2.2267503049592609E-019
   2.4500000000000002          2.7371936381959603E-019
   2.4600000000000000          3.3572583066294253E-019
   2.4699999999999998          4.1086753789271898E-019
   2.4799999999999995          5.0170954673905817E-019
   2.4900000000000002          6.1117852560674928E-019
   2.5000000000000000          7.4273850010601126E-019
   2.5099999999999998          9.0071634862353242E-019
   2.5199999999999996          1.0899379462505237E-018
   2.5300000000000002          1.3157187556032508E-018
   2.5400000000000000          1.5846037398809631E-018
   2.5499999999999998          1.9038862539421172E-018
   2.5599999999999996          2.2825736742719560E-018
   2.5700000000000003          2.7296099946412858E-018
   2.5800000000000001          3.2574142979718246E-018
   2.5899999999999999          3.8780613532553153E-018
   2.5999999999999996          4.6059633350994223E-018
   2.6100000000000003          5.4571632046894585E-018
   2.6200000000000001          6.4522635495422822E-018
   2.6299999999999999          7.6080110547493357E-018
   2.6399999999999997          8.9500950550043720E-018
   2.6500000000000004          1.0501478084111863E-017
   2.6600000000000001          1.2292554893680070E-017
   2.6699999999999999          1.4360029141849197E-017
   2.6799999999999997          1.6727590454182148E-017
   2.6900000000000004          1.9445093833378107E-017
   2.7000000000000002          2.2545214567994145E-017
   2.7100000000000000          2.6071806465385373E-017
   2.7199999999999998          3.0067975561633153E-017
   2.7300000000000004          3.4600928627146195E-017
   2.7400000000000002          3.9700649304768321E-017
   2.7500000000000000          4.5459441024693097E-017
   2.7599999999999998          5.1908263502887158E-017
   2.7700000000000005          5.9117281507629704E-017
   2.7800000000000002          6.7138193827205296E-017
   2.7900000000000000          7.6057708842144195E-017
   2.7999999999999998          8.5935773985799344E-017
   2.8099999999999996          9.6855021292642339E-017
   2.8200000000000003          1.0882179689233269E-016
   2.8300000000000001          1.2193559406894827E-016
   2.8399999999999999          1.3623001620769343E-016
   2.8500000000000005          1.5181169019824872E-016
   2.8600000000000003          1.6867342949545227E-016
   2.8700000000000001          1.8691949856115516E-016
   2.8799999999999999          2.0650910746499118E-016
   2.8899999999999997          2.2743165506022985E-016
   2.9000000000000004          2.4979541598033192E-016
   2.9100000000000001          2.7337199573200413E-016
   2.9199999999999999          2.9816234722731215E-016
   2.9300000000000006          3.2414685635957113E-016
   2.9400000000000004          3.5137997146542175E-016
   2.9500000000000002          3.7973543169616392E-016
   2.9600000000000000          4.0894591874760010E-016
   2.9699999999999998          4.3889149804835501E-016
   2.9799999999999995          4.6875390930160138E-016
   2.9899999999999993          4.9884846052195464E-016
   3.0000000000000000          5.2896752275821907E-016
   3.0099999999999998          5.5866052742201459E-016
   3.0199999999999996          5.8793488605162966E-016
   3.0299999999999994          6.1528256236359643E-016
   3.0400000000000000          6.4135127186476840E-016
   3.0499999999999998          6.6526539424592145E-016
   3.0599999999999996          6.8654386773257434E-016
   3.0699999999999994          7.0519383916521953E-016
   3.0800000000000001          7.1834714910533554E-016
   3.0899999999999999          7.2863139963442363E-016
   3.0999999999999996          7.3399745923439803E-016
   3.1099999999999994          7.3222811328670220E-016
   3.1200000000000001          7.2611793524256490E-016
   3.1299999999999999          7.1122995476603128E-016
   3.1399999999999997          6.9321086406041294E-016
   3.1499999999999995          6.6485611851372002E-016
   3.1600000000000001          6.2829118848840956E-016
   3.1699999999999999          5.8351263291313337E-016
   3.1799999999999997          5.2792175470571523E-016
   3.1899999999999995          4.6116290590742675E-016
   3.2000000000000002          3.8652670363923248E-016
   3.2100000000000000          3.0466933373745849E-016
   3.2199999999999998          2.1113642198606182E-016
   3.2299999999999995          1.0710435818243579E-016
   3.2400000000000002         -6.1224174220709432E-018
   3.2500000000000000         -1.2774432102809164E-016
   3.2599999999999998         -2.5125834775935850E-016
   3.2699999999999996         -3.9044023408356377E-016
   3.2800000000000002         -5.3440293318074992E-016
   3.2900000000000000         -6.9156147915387200E-016
   3.2999999999999998         -8.4337180615847124E-016
   3.3099999999999996         -1.0016173071611574E-015
   3.3200000000000003         -1.1566785466173186E-015
   3.3300000000000001         -1.3206309850416899E-015
   3.3399999999999999         -1.4773877727000174E-015
   3.3499999999999996         -1.6378320124150981E-015
   3.3600000000000003         -1.7928928283547857E-015
   3.3700000000000001         -1.9454299096281292E-015
   3.3799999999999999         -2.0842003761679852E-015
   3.3899999999999997         -2.2173924954754613E-015
   3.4000000000000004         -2.3286276149659746E-015
   3.4100000000000001         -2.4304998440157757E-015
   3.4199999999999999         -2.5233361373425047E-015
   3.4299999999999997         -2.5984040087764435E-015
   3.4400000000000004         -2.6473669600507151E-015
   3.4500000000000002         -2.6691321069051248E-015
   3.4600000000000000         -2.6765722325555697E-015
   3.4699999999999998         -2.6892415161058891E-015
   3.4800000000000004         -2.6810697657472533E-015
   3.4900000000000002         -2.6374452396230518E-015
   3.5000000000000000         -2.5530168070890058E-015
   3.5099999999999998         -2.4499206154304223E-015
   3.5200000000000005         -2.3334396091393263E-015
   3.5300000000000002         -2.1976917796717472E-015
   3.5400000000000000         -2.0410995281634238E-015
   3.5499999999999998         -1.8563768889603115E-015
   3.5600000000000005         -1.6669731221741983E-015
   3.5700000000000003         -1.4589912758768381E-015
   3.5800000000000001         -1.2405219970221672E-015
   3.5899999999999999         -9.9309467340412145E-016
   3.5999999999999996         -7.4368068694784998E-016
   3.6099999999999994         -4.8886967124947014E-016
   3.6200000000000001         -2.4408638744605833E-016
   3.6299999999999999          3.4090271984709034E-018
   3.6399999999999997          2.6283474704948302E-016
   3.6499999999999995          5.2377208735755721E-016
   3.6599999999999993          7.8213502984112956E-016
   3.6699999999999999          1.0282374351109919E-015
   3.6799999999999997          1.2628992310600865E-015
   3.6899999999999995          1.4889167381450957E-015
   3.7000000000000002          1.6970901197676538E-015
   3.7100000000000000          1.8899816505932050E-015
   3.7199999999999998          2.0628233821616548E-015
   3.7299999999999995          2.2139217779740868E-015
   3.7399999999999993          2.3545876924916612E-015
   3.7500000000000000          2.4616710799912076E-015
   3.7599999999999998          2.5645006680296428E-015
   3.7699999999999996          2.6213789304377691E-015
   3.7800000000000002          2.6729088150586949E-015
   3.7900000000000000          2.6889450545743501E-015
   3.7999999999999998          2.6909184295832158E-015
   3.8099999999999996          2.6673207269474215E-015
   3.8199999999999994          2.6241377167469764E-015
   3.8300000000000001          2.5691472790200431E-015
   3.8399999999999999          2.4918489580777470E-015
   3.8499999999999996          2.4122134614757394E-015
   3.8600000000000003          2.3014046113159319E-015
   3.8700000000000001          2.1893110239333763E-015
   3.8799999999999999          2.0550781128919615E-015
   3.8899999999999997          1.9219700616045004E-015
   3.8999999999999995          1.7684289286513054E-015
   3.9100000000000001          1.6087887349614059E-015
   3.9199999999999999          1.4518177538465414E-015
   3.9299999999999997          1.3006472543544744E-015
   3.9400000000000004          1.1403528335919393E-015
   3.9500000000000002          9.7220842911160650E-016
   3.9600000000000000          8.0539206641345009E-016
   3.9699999999999998          6.4461181931610542E-016
   3.9799999999999995          4.9876153376574267E-016
   3.9900000000000002          3.6705127212970838E-016
   4.0000000000000000          2.2631725086921881E-016
   4.0099999999999998          1.1420633901591397E-016
   4.0200000000000005         -7.5244674672427050E-018
   4.0300000000000002         -1.0949322932170933E-016
   4.0400000000000000         -2.2001196407963740E-016
   4.0499999999999998         -3.2738755147620688E-016
   4.0599999999999996         -4.1491043359458927E-016
   4.0700000000000003         -4.8017154285367493E-016
   4.0800000000000001         -5.3482957308837007E-016
   4.0899999999999999         -5.8139764458339858E-016
   4.1000000000000005         -6.4013175617895902E-016
   4.1100000000000003         -6.8446572533604512E-016
   4.1200000000000001         -7.0403393342307317E-016
   4.1299999999999999         -7.0997311669098351E-016
   4.1399999999999997         -7.1024024970672383E-016
   4.1500000000000004         -7.3253150990049685E-016
   4.1600000000000001         -7.4683387297312252E-016
   4.1699999999999999         -7.4427990981847320E-016
   4.1800000000000006         -7.3054325887549499E-016
   4.1900000000000004         -7.1277139591135650E-016
   4.2000000000000002         -7.1134176311506885E-016
   4.2100000000000000         -7.0288652141689881E-016
   4.2199999999999998         -6.7068693450394101E-016
   4.2300000000000004         -6.2542551720917066E-016
   4.2400000000000002         -5.8093055885254704E-016