  -1.2000000000000000          0.0000000000000000     
  -1.1899999999999999          0.0000000000000000     
  -1.1799999999999999          0.0000000000000000     
  -1.1699999999999999          0.0000000000000000     
  -1.1599999999999999          0.0000000000000000     
  -1.1499999999999999          0.0000000000000000     
  -1.1399999999999999          0.0000000000000000     
  -1.1299999999999999          0.0000000000000000     
  -1.1199999999999999          0.0000000000000000     
  -1.1099999999999999          0.0000000000000000     
  -1.0999999999999999          0.0000000000000000     
  -1.0899999999999999          0.0000000000000000     
  -1.0800000000000001          0.0000000000000000     
  -1.0699999999999998          0.0000000000000000     
  -1.0600000000000001          0.0000000000000000     
  -1.0500000000000000          0.0000000000000000     
  -1.0400000000000000          0.0000000000000000     
  -1.0300000000000000          0.0000000000000000     
  -1.0200000000000000          0.0000000000000000     
  -1.0100000000000000          0.0000000000000000     
  -1.0000000000000000          0.0000000000000000     
 -0.98999999999999999          0.0000000000000000     
 -0.97999999999999998          0.0000000000000000     
 -0.96999999999999997          0.0000000000000000     
 -0.95999999999999996          0.0000000000000000     
 -0.94999999999999996          0.0000000000000000     
 -0.93999999999999995          0.0000000000000000     
 -0.92999999999999994          0.0000000000000000     
 -0.91999999999999993          0.0000000000000000     
 -0.90999999999999992          0.0000000000000000     
 -0.89999999999999991          0.0000000000000000     
 -0.88999999999999990          0.0000000000000000     
 -0.87999999999999989          0.0000000000000000     
 -0.86999999999999988          0.0000000000000000     
 -0.85999999999999988          0.0000000000000000     
 -0.84999999999999987          0.0000000000000000     
 -0.83999999999999986          0.0000000000000000     
 -0.82999999999999996          0.0000000000000000     
 -0.81999999999999995          0.0000000000000000     
 -0.80999999999999994          0.0000000000000000     
 -0.79999999999999993          0.0000000000000000     
 -0.78999999999999992          0.0000000000000000     
 -0.77999999999999992          0.0000000000000000     
 -0.76999999999999991          0.0000000000000000     
 -0.76000000000000001          0.0000000000000000     
 -0.75000000000000000          0.0000000000000000     
 -0.73999999999999999          0.0000000000000000     
 -0.72999999999999998          0.0000000000000000     
 -0.71999999999999997          0.0000000000000000     
 -0.70999999999999996          0.0000000000000000     
 -0.69999999999999996          0.0000000000000000     
 -0.68999999999999995          0.0000000000000000     
 -0.67999999999999994          0.0000000000000000     
 -0.66999999999999993          0.0000000000000000     
 -0.65999999999999992          0.0000000000000000     
 -0.64999999999999991          0.0000000000000000     
 -0.63999999999999990          0.0000000000000000     
 -0.62999999999999989          0.0000000000000000     
 -0.61999999999999988          0.0000000000000000     
 -0.60999999999999988          0.0000000000000000     
 -0.59999999999999998          0.0000000000000000     
 -0.58999999999999997          0.0000000000000000     
 -0.57999999999999996          0.0000000000000000     
 -0.56999999999999995          0.0000000000000000     
 -0.55999999999999994          0.0000000000000000     
 -0.54999999999999993          0.0000000000000000     
 -0.53999999999999992          0.0000000000000000     
 -0.52999999999999992          0.0000000000000000     
 -0.51999999999999991          0.0000000000000000     
 -0.50999999999999990          0.0000000000000000     
 -0.49999999999999989          0.0000000000000000     
 -0.48999999999999988          0.0000000000000000     
 -0.47999999999999987          0.0000000000000000     
 -0.46999999999999997          0.0000000000000000     
 -0.45999999999999996          0.0000000000000000     
 -0.44999999999999996          0.0000000000000000     
 -0.43999999999999995          0.0000000000000000     
 -0.42999999999999994          0.0000000000000000     
 -0.41999999999999993          0.0000000000000000     
 -0.40999999999999992          0.0000000000000000     
 -0.39999999999999991          0.0000000000000000     
 -0.38999999999999990          0.0000000000000000     
 -0.37999999999999989          0.0000000000000000     
 -0.36999999999999988          0.0000000000000000     
 -0.35999999999999988          0.0000000000000000     
 -0.34999999999999987          0.0000000000000000     
 -0.33999999999999986          1.5414283107572988E-044
 -0.32999999999999985         -1.2191296639625909E-043
 -0.32000000000000006         -5.7733496730182463E-043
 -0.31000000000000005         -2.5139294449987218E-042
 -0.30000000000000004          1.1525679869071620E-041
 -0.29000000000000004          1.2204749104883427E-040
 -0.28000000000000003         -2.8801167596960830E-040
 -0.27000000000000002         -6.0798164497630125E-039
 -0.26000000000000001          6.1474111640463415E-038
 -0.25000000000000000          2.8618131112589494E-037
 -0.23999999999999999          5.2436530241018539E-037
 -0.22999999999999998          8.9580674646317549E-037
 -0.21999999999999997          1.4927407000817802E-036
 -0.20999999999999996          2.3821191411800997E-036
 -0.19999999999999996          3.6956964113212849E-036
 -0.18999999999999995          5.6294649744830861E-036
 -0.17999999999999994          8.4481166132696528E-036
 -0.16999999999999993          1.2594022912674029E-035
 -0.15999999999999992          1.8705696705932756E-035
 -0.14999999999999991          2.7178726567394519E-035
 -0.13999999999999990          3.8819558731922580E-035
 -0.12999999999999989          5.6797487829395805E-035
 -0.11999999999999988          8.2818065475304877E-035
 -0.10999999999999988          1.1566045928231801E-034
  -9.9999999999999867E-002     1.6520496329614798E-034
  -8.9999999999999858E-002     2.3850824000044889E-034
  -7.9999999999999849E-002     3.3201601462572904E-034
  -6.9999999999999840E-002     4.7264993174732568E-034
  -5.9999999999999831E-002     6.6419352197145190E-034
  -4.9999999999999822E-002     9.2727843307059181E-034
  -3.9999999999999813E-002     1.3112872745582858E-033
  -2.9999999999999805E-002     1.8100625682526369E-033
  -1.9999999999999796E-002     2.5460570300467411E-033
  -9.9999999999997868E-003     3.5236232951165027E-033
   0.0000000000000000          4.8888229650363219E-033
   1.0000000000000009E-002     6.7770518668568099E-033
   2.0000000000000018E-002     9.3357724608107611E-033
   3.0000000000000027E-002     1.2895938569216467E-032
   4.0000000000000036E-002     1.7692344903075110E-032
   5.0000000000000044E-002     2.4330167545600682E-032
   6.0000000000000053E-002     3.3248073070529228E-032
   7.0000000000000062E-002     4.5503239383536897E-032
   8.0000000000000071E-002     6.1955969657688240E-032
   9.0000000000000080E-002     8.4396080407752905E-032
  0.10000000000000009          1.1449626483012048E-031
  0.11000000000000010          1.5525950544559088E-031
  0.12000000000000011          2.0982715221499931E-031
  0.13000000000000012          2.8327373196624101E-031
  0.14000000000000012          3.8133819619912654E-031
  0.15000000000000013          5.1258108252351920E-031
  0.16000000000000014          6.8729838138906230E-031
  0.17000000000000015          9.1989062739982635E-031
  0.18000000000000016          1.2284986136149893E-030
  0.19000000000000017          1.6372795012603337E-030
  0.20000000000000018          2.1777086091921213E-030
  0.21000000000000019          2.8902080848300444E-030
  0.22000000000000020          3.8284308757693625E-030
  0.23000000000000020          5.0599569985947817E-030
  0.24000000000000021          6.6748451192233640E-030
  0.25000000000000000          8.7856327409836244E-030
  0.26000000000000001          1.1541181835356351E-029
  0.27000000000000002          1.5128379829320022E-029
  0.28000000000000003          1.9790136894059629E-029
  0.29000000000000004          2.5834174504970719E-029
  0.30000000000000004          3.3653483181103816E-029
  0.31000000000000005          4.3749656330146884E-029
  0.32000000000000006          5.6754176288209117E-029
  0.33000000000000007          7.3473745895886951E-029
  0.34000000000000008          9.4917465175338693E-029
  0.35000000000000009          1.2236614976195477E-028
  0.36000000000000010          1.5742185438731832E-028
  0.37000000000000011          2.0209560500670312E-028
  0.38000000000000012          2.5890683095098363E-028
  0.39000000000000012          3.3098772023696543E-028
  0.40000000000000013          4.2225575881627798E-028
  0.41000000000000014          5.3755391420120173E-028
  0.42000000000000015          6.8289840635201352E-028
  0.43000000000000016          8.6571725817472328E-028
  0.44000000000000017          1.0951630183957938E-027
  0.45000000000000018          1.3825076253489890E-027
  0.46000000000000019          1.7415533522772571E-027
  0.47000000000000020          2.1892120789117541E-027
  0.48000000000000020          2.7461126334798062E-027
  0.49000000000000021          3.4373905202786055E-027
  0.50000000000000022          4.2935480399883738E-027
  0.51000000000000023          5.3515576549375019E-027
  0.52000000000000024          6.6560893842561071E-027
  0.53000000000000025          8.2610037847689230E-027
  0.54000000000000026          1.0231028280418893E-026
  0.55000000000000027          1.2643784781312624E-026
  0.55999999999999983          1.5592097718165735E-026
  0.57000000000000006          1.9186730403567847E-026
  0.57999999999999985          2.3559451112454047E-026
  0.59000000000000008          2.8866583726550358E-026
  0.59999999999999987          3.5293103802179462E-026
  0.61000000000000010          4.3057257720639321E-026
  0.61999999999999988          5.2416084714539723E-026
  0.63000000000000012          6.3670923486699271E-026
  0.63999999999999990          7.7174854003450501E-026
  0.65000000000000013          9.3339612353512203E-026
  0.65999999999999992          1.1264391384683709E-025
  0.67000000000000015          1.3564544616556149E-025
  0.67999999999999994          1.6298609556750242E-025
  0.69000000000000017          1.9540782271187517E-025
  0.69999999999999996          2.3376549397495480E-025
  0.71000000000000019          2.7903716129374728E-025
  0.71999999999999997          3.3234283459034342E-025
  0.73000000000000020          3.9495400973253977E-025
  0.73999999999999999          4.6832201822261998E-025
  0.75000000000000022          5.5408421482508011E-025
  0.76000000000000001          6.5409249981873306E-025
  0.77000000000000024          7.7041990105488652E-025
  0.78000000000000003          9.0540642649745887E-025
  0.79000000000000026          1.0616483159931456E-024
  0.80000000000000004          1.2420482818503206E-024
  0.81000000000000028          1.4498088035213418E-024
  0.82000000000000006          1.6884737400153013E-024
  0.83000000000000029          1.9619566302830005E-024
  0.84000000000000008          2.2745106178949387E-024
  0.85000000000000031          2.6308112814363607E-024
  0.86000000000000010          3.0359012170286655E-024
  0.87000000000000033          3.4952391449207563E-024
  0.88000000000000012          4.0147316611404753E-024
  0.88999999999999990          4.6006750590028441E-024
  0.90000000000000013          5.2597395518919589E-024
  0.90999999999999992          5.9990035887103678E-024
  0.92000000000000015          6.8260291900955196E-024
  0.92999999999999994          7.7485278658264021E-024
  0.94000000000000017          8.7745787348638364E-024
  0.94999999999999996          9.9125255790023451E-024
  0.96000000000000019          1.1170900717792799E-023
  0.96999999999999997          1.2558330345233789E-023
  0.98000000000000020          1.4083328637075366E-023
  0.98999999999999999          1.5754382158935898E-023
   1.0000000000000002          1.7579807871339130E-023
   1.0100000000000000          1.9567330300268986E-023
   1.0200000000000002          2.1724396292670752E-023
   1.0300000000000000          2.4057689078133460E-023
   1.0400000000000003          2.6572811146805992E-023
   1.0500000000000000          2.9274432555247253E-023
   1.0600000000000003          3.2165557285784327E-023
   1.0700000000000001          3.5248447791493388E-023
   1.0800000000000003          3.8522826393335796E-023
   1.0900000000000001          4.1986941820101963E-023
   1.1000000000000003          4.5636086149909528E-023
   1.1100000000000001          4.9463973739065691E-023
   1.1200000000000003          5.3460415660118617E-023
   1.1300000000000001          5.7613932409175530E-023
   1.1400000000000003          6.1908535353409411E-023
   1.1500000000000001          6.6324654431483536E-023
   1.1600000000000004          7.0840384553781729E-023
   1.1700000000000002          7.5429630201559279E-023
   1.1800000000000004          8.0061575312414631E-023
   1.1900000000000002          8.4704103781174429E-023
   1.2000000000000000          8.9318668708565952E-023
   1.2100000000000002          9.3866010065058161E-023
   1.2200000000000000          9.8298562693509850E-023
   1.2299999999999998          1.0256652107180899E-022
   1.2400000000000000          1.0662180886094778E-022
   1.2500000000000002          1.1041091604800328E-022
   1.2600000000000000          1.1387459602354976E-022
   1.2699999999999998          1.1695398083139602E-022
   1.2800000000000000          1.1958886460725558E-022
   1.2900000000000003          1.2171885216022473E-022
   1.3000000000000000          1.2328069577836647E-022
   1.3099999999999998          1.2421470709014815E-022
   1.3200000000000001          1.2446060450063640E-022
   1.3300000000000003          1.2396532606990244E-022
   1.3400000000000001          1.2266357935854293E-022
   1.3499999999999999          1.2051223576314764E-022
   1.3600000000000001          1.1747306392880593E-022
   1.3700000000000003          1.1349243393573725E-022
   1.3800000000000001          1.0854216136151988E-022
   1.3899999999999999          1.0260234797868050E-022
   1.4000000000000001          9.5655544183995647E-023
   1.4100000000000004          8.7684470768197345E-023
   1.4200000000000002          7.8700739763810452E-023
   1.4299999999999999          6.8713274765394826E-023
   1.4400000000000002          5.7743160447225216E-023
   1.4500000000000004          4.5825040424815307E-023
   1.4600000000000002          3.3018224416463236E-023
   1.4700000000000000          1.9363564373006777E-023
   1.4800000000000002          4.9369921008779811E-024
   1.4900000000000004         -1.0181908956360837E-023
   1.5000000000000002         -2.5900223605849126E-023
   1.5100000000000000         -4.2117577186006563E-023
   1.5200000000000002         -5.8731742000986462E-023
   1.5300000000000005         -7.5612519713825718E-023
   1.5400000000000003         -9.2635279767830272E-023
   1.5500000000000000         -1.0967648023435527E-022
   1.5600000000000003         -1.2659800103522738E-022
   1.5700000000000005         -1.4325698892684194E-022
   1.5800000000000003         -1.5951307715516754E-022
   1.5900000000000001         -1.7522627761940728E-022
   1.6000000000000003         -1.9025622356552976E-022
   1.6100000000000005         -2.0446493375488095E-022
   1.6200000000000003         -2.1773795393644416E-022
   1.6300000000000001         -2.2994197292812426E-022
   1.6400000000000003         -2.4095611199569245E-022
   1.6500000000000006         -2.5068017949329840E-022
   1.6600000000000004         -2.5902945807060862E-022
   1.6700000000000002         -2.6590857759962552E-022
   1.6800000000000004         -2.7125243496756300E-022
   1.6899999999999997         -2.7501740932180598E-022
   1.7000000000000000         -2.7718136206991032E-022
   1.7099999999999997         -2.7768908557028505E-022
   1.7200000000000000         -2.7655529681197796E-022
   1.7299999999999998         -2.7378860384518683E-022
   1.7400000000000000         -2.6941836491736036E-022
   1.7499999999999998         -2.6348491921974793E-022
   1.7600000000000000         -2.5606346728472245E-022
   1.7699999999999998         -2.4720866139579764E-022
   1.7800000000000000         -2.3700446159683797E-022
   1.7899999999999998         -2.2554775262877907E-022
   1.8000000000000000         -2.1296593868325776E-022
   1.8099999999999998         -1.9936249306749006E-022
   1.8200000000000001         -1.8486541319651352E-022
   1.8299999999999998         -1.6961430851789052E-022
   1.8400000000000001         -1.5373561134662265E-022
   1.8499999999999999         -1.3736824955445020E-022
   1.8600000000000001         -1.2066854381835175E-022
   1.8699999999999999         -1.0377323213219471E-022
   1.8800000000000001         -8.6801880565661594E-023
   1.8899999999999999         -6.9897247699048455E-023
   1.9000000000000001         -5.3203221761467600E-023
   1.9099999999999999         -3.6835020621291991E-023
   1.9200000000000002         -2.0900402678174817E-023
   1.9299999999999999         -5.5114078743323552E-024
   1.9400000000000002          9.2434484690737127E-024
   1.9500000000000000          2.3278422299241747E-023
   1.9600000000000002          3.6507772718813727E-023
   1.9700000000000000          4.8871712748643860E-023
   1.9800000000000002          6.0331179574427410E-023
   1.9900000000000000          7.0829384677319328E-023
   2.0000000000000000          8.0329687045993907E-023
   2.0099999999999998          8.8831909975608378E-023
   2.0200000000000005          9.6320156341200729E-023
   2.0300000000000002          1.0280558379141440E-022
   2.0400000000000000          1.0828845107262631E-022
   2.0499999999999998          1.1279225361803757E-022
   2.0600000000000005          1.1635752625640203E-022
   2.0700000000000003          1.1901573507150717E-022
   2.0800000000000001          1.2079837139068941E-022
   2.0899999999999999          1.2176537602097105E-022
   2.1000000000000005          1.2196011737947753E-022
   2.1100000000000003          1.2144708011204523E-022
   2.1200000000000001          1.2027706686097039E-022
   2.1299999999999999          1.1851779344635719E-022
   2.1400000000000006          1.1622689089049743E-022
   2.1500000000000004          1.1347231482721050E-022
   2.1600000000000001          1.1030671067786720E-022
   2.1699999999999999          1.0677343423781850E-022
   2.1800000000000006          1.0294654376884654E-022
   2.1900000000000004          9.8891211803497050E-023
   2.2000000000000002          9.4662279951901008E-023
   2.2100000000000000          9.0286878718310771E-023
   2.2200000000000006          8.5816889906740913E-023
   2.2300000000000004          8.1301046188472368E-023
   2.2400000000000002          7.6777686203498878E-023
   2.2500000000000000          7.2281330505032913E-023
   2.2600000000000007          6.7831965672969153E-023
   2.2700000000000005          6.3466087568226744E-023
   2.2800000000000002          5.9212934531396796E-023
   2.2900000000000000          5.5093162096421617E-023
   2.3000000000000007          5.1107212025408130E-023
   2.3100000000000005          4.7270303022939860E-023
   2.3199999999999994          4.3597129989959263E-023
   2.3300000000000001          4.0102845366733824E-023
   2.3399999999999999          3.6792990112261816E-023
   2.3499999999999996          3.3647047532120250E-023
   2.3599999999999994          3.0686730233864431E-023
   2.3700000000000001          2.7905295034476528E-023
   2.3799999999999999          2.5301779523652172E-023
   2.3899999999999997          2.2869060287417217E-023
   2.3999999999999995          2.0601561656893562E-023
   2.4100000000000001          1.8490849131282583E-023
   2.4199999999999999          1.6530859525666751E-023
   2.4299999999999997          1.4712808085005525E-023
   2.4399999999999995          1.3034478899016140E-023
   2.4500000000000002          1.1475517778622082E-023
   2.4600000000000000          1.0041458583073478E-023
   2.4699999999999998          8.7172403799678472E-024
   2.4799999999999995          7.5020111995275516E-024
   2.4900000000000002          6.3785474471784480E-024
   2.5000000000000000          5.3442111720534774E-024
   2.5099999999999998          4.3871521056344098E-024
   2.5199999999999996          3.5156099000762785E-024
   2.5300000000000002          2.7094755048288685E-024
   2.5400000000000000          1.9729271216766829E-024
   2.5499999999999998          1.2782008896680812E-024
   2.5599999999999996          6.3987964219317267E-025
   2.5700000000000003          6.2725430550961134E-026
   2.5800000000000001         -4.5898693409307398E-025
   2.5899999999999999         -9.4324443563922416E-025
   2.5999999999999996         -1.3982306123476632E-024
   2.6100000000000003         -1.8022259048263607E-024
   2.6200000000000001         -2.1614270127010541E-024
   2.6299999999999999         -2.4858914194752454E-024
   2.6399999999999997         -2.7779866939407292E-024
   2.6500000000000004         -3.0361000099767812E-024
   2.6600000000000001         -3.2568386740452721E-024
   2.6699999999999999         -3.4371494000125440E-024
   2.6799999999999997         -3.5859956199141706E-024
   2.6900000000000004         -3.6997832834659651E-024
   2.7000000000000002         -3.7691789828678048E-024
   2.7100000000000000         -3.7938581018571916E-024
   2.7199999999999998         -3.7902064647269235E-024
   2.7300000000000004         -3.7438762693328409E-024
   2.7400000000000002         -3.6676048582810948E-024
   2.7500000000000000         -3.5440712126757474E-024
   2.7599999999999998         -3.3813871892051864E-024
   2.7700000000000005         -3.1833752133856602E-024
   2.7800000000000002         -2.9418342872464912E-024
   2.7900000000000000         -2.6669953450827170E-024
   2.7999999999999998         -2.3596484310909164E-024
   2.8099999999999996         -2.0203408175240865E-024
   2.8200000000000003         -1.6387850679248533E-024
   2.8300000000000001         -1.2230893904999178E-024
   2.8399999999999999         -7.7625564751267868E-025
   2.8500000000000005         -3.1304061618284638E-025
   2.8600000000000003          1.9054157398064799E-025
   2.8700000000000001          7.1671222917137041E-025
   2.8799999999999999          1.2514945953675028E-024
   2.8899999999999997          1.7928656757554608E-024
   2.9000000000000004          2.3450943418200414E-024
   2.9100000000000001          2.9159499860091531E-024
   2.9199999999999999          3.4873185870018847E-024
   2.9300000000000006          4.0546496006664689E-024
   2.9400000000000004          4.6071472682997299E-024
   2.9500000000000002          5.1524095037103037E-024
   2.9600000000000000          5.6797077985871846E-024
   2.9699999999999998          6.1944671493755775E-024
   2.9799999999999995          6.6713382997471105E-024
   2.9899999999999993          7.1292949321941592E-024
   3.0000000000000000          7.5556103537327932E-024
   3.0099999999999998          7.9438585034290821E-024
   3.0199999999999996          8.2967380744397868E-024
   3.0299999999999994          8.5952004424865358E-024
   3.0400000000000000          8.8570841192190916E-024
   3.0499999999999998          9.0744231872165326E-024
   3.0599999999999996          9.2389945604028348E-024
   3.0699999999999994          9.3561340939409133E-024
   3.0800000000000001          9.4164361992578179E-024
   3.0899999999999999          9.4222098722231305E-024
   3.0999999999999996          9.3808672499023077E-024
   3.1099999999999994          9.3041686706703844E-024
   3.1200000000000001          9.1602370542082847E-024
   3.1299999999999999          8.9688735980979612E-024
   3.1399999999999997          8.7300577919558782E-024
   3.1499999999999995          8.4693755503819739E-024
   3.1600000000000001          8.1541735539264351E-024
   3.1699999999999999          7.8027320763459483E-024
   3.1799999999999997          7.4083568439988078E-024
   3.1899999999999995          6.9879910114073507E-024
   3.2000000000000002          6.5456522471618676E-024
   3.2100000000000000          6.0889400427928049E-024
   3.2199999999999998          5.6047486576512736E-024
   3.2299999999999995          5.0980767088632065E-024
   3.2400000000000002          4.5770427584346856E-024
   3.2500000000000000          4.0619903458200031E-024
   3.2599999999999998          3.5533588665433669E-024
   3.2699999999999996          3.0318050567783054E-024
   3.2800000000000002          2.5246290258718021E-024
   3.2900000000000000          2.0165463965699735E-024
   3.2999999999999998          1.5186993361210007E-024
   3.3099999999999996          1.0442279006231500E-024
   3.3200000000000003          5.8832787785981901E-025
   3.3300000000000001          1.4589410517906328E-025
   3.3399999999999999         -2.7683399604498143E-025
   3.3499999999999996         -6.7333671229779307E-025
   3.3600000000000003         -1.0402340950752423E-024
   3.3700000000000001         -1.3860480361731088E-024
   3.3799999999999999         -1.6982832253717245E-024
   3.3899999999999997         -1.9832215592745908E-024
   3.4000000000000004         -2.2414050839312074E-024
   3.4100000000000001         -2.4674878862021181E-024
   3.4199999999999999         -2.6687217671737932E-024
   3.4299999999999997         -2.8390701659842552E-024
   3.4400000000000004         -2.9798402251534554E-024
   3.4500000000000002         -3.0901661698379137E-024
   3.4600000000000000         -3.1746080105002602E-024
   3.4699999999999998         -3.2387597570346433E-024
   3.4800000000000004         -3.2744821398362190E-024
   3.4900000000000002         -3.2831889948623696E-024
   3.5000000000000000         -3.2762397219330514E-024
   3.5099999999999998         -3.2472435616398427E-024
   3.5200000000000005         -3.1887860103345711E-024
   3.5300000000000002         -3.1101415084646939E-024
   3.5400000000000000         -3.0185216252105151E-024
   3.5499999999999998         -2.9058334365453725E-024
   3.5600000000000005         -2.7853374970708049E-024
   3.5700000000000003         -2.6483681697429595E-024
   3.5800000000000001         -2.5056537656576159E-024
   3.5899999999999999         -2.3438183593058464E-024
   3.5999999999999996         -2.1649589401889548E-024
   3.6099999999999994         -1.9906303436812002E-024
   3.6200000000000001         -1.8165111897437817E-024
   3.6299999999999999         -1.6295274893792453E-024
   3.6399999999999997         -1.4385487015678302E-024
   3.6499999999999995         -1.2394800465657605E-024
   3.6599999999999993         -1.0393785754235302E-024
   3.6699999999999999         -8.4378524713941160E-025
   3.6799999999999997         -6.4604858377580756E-025
   3.6899999999999995         -4.4983309075650251E-025
   3.7000000000000002         -2.4864493906542695E-025
   3.7100000000000000         -7.4258207206743005E-026
   3.7199999999999998          1.0261129795077688E-025
   3.7299999999999995          2.7642797919782550E-025
   3.7399999999999993          4.4104379976575630E-025
   3.7500000000000000          5.9181779850451676E-025
   3.7599999999999998          7.3666804349074634E-025
   3.7699999999999996          8.7203770881422322E-025
   3.7800000000000002          9.8412379939345591E-025
   3.7900000000000000          1.0924390362381190E-024
   3.7999999999999998          1.1854334110120322E-024
   3.8099999999999996          1.2547498298928973E-024
   3.8199999999999994          1.3106132121113496E-024
   3.8300000000000001          1.3519952774774334E-024
   3.8399999999999999          1.3839804317405245E-024
   3.8499999999999996          1.3967452858707452E-024
   3.8600000000000003          1.3882456054398282E-024
   3.8700000000000001          1.3645465475175655E-024
   3.8799999999999999          1.3192596206706376E-024
   3.8899999999999997          1.2638709355019021E-024
   3.8999999999999995          1.1857954981675287E-024
   3.9100000000000001          1.0879771403505758E-024
   3.9199999999999999          9.6166630992839784E-025
   3.9299999999999997          8.3420098157142892E-025
   3.9400000000000004          6.9685162050249333E-025
   3.9500000000000002          5.4195888036996081E-025
   3.9600000000000000          3.7185199625601285E-025
   3.9699999999999998          1.9068327312074831E-025
   3.9799999999999995         -8.3177775032275365E-028
   3.9900000000000002         -2.1242303474752335E-025
   4.0000000000000000         -4.2898172209447442E-025
   4.0099999999999998         -6.4908357819722567E-025
   4.0200000000000005         -8.8175795428074338E-025
   4.0300000000000002         -1.1135005377237753E-024
   4.0400000000000000         -1.3569069226885657E-024
   4.0499999999999998         -1.6076730840762287E-024
   4.0599999999999996         -1.8614131524689617E-024
   4.0700000000000003         -2.1123519757872549E-024
   4.0800000000000001         -2.3556163657891055E-024
   4.0899999999999999         -2.6098581497175591E-024
   4.1000000000000005         -2.8531393030136457E-024
   4.1100000000000003         -3.0992418173372552E-024
   4.1200000000000001         -3.3400197177658491E-024
   4.1299999999999999         -3.5777358518060540E-024
   4.1399999999999997         -3.8042836875805925E-024
   4.1500000000000004         -4.0294861210812765E-024
   4.1600000000000001         -4.2504346221505562E-024
   4.1699999999999999         -4.4540380440662889E-024
   4.1800000000000006         -4.6408130907213944E-024
   4.1900000000000004         -4.8284878332389044E-024
   4.2000000000000002         -5.0074022754039351E-024
   4.2100000000000000         -5.1669233610750124E-024
   4.2199999999999998         -5.3086485335852090E-024
   4.2300000000000004         -5.4421383926753508E-024
   4.2400000000000002         -5.5615451124550344E-024