  -1.2000000000000000          0.0000000000000000     
  -1.1899999999999999          0.0000000000000000     
  -1.1799999999999999          0.0000000000000000     
  -1.1699999999999999          0.0000000000000000     
  -1.1599999999999999          0.0000000000000000     
  -1.1499999999999999          0.0000000000000000     
  -1.1399999999999999          0.0000000000000000     
  -1.1299999999999999          0.0000000000000000     
  -1.1199999999999999          0.0000000000000000     
  -1.1099999999999999          0.0000000000000000     
  -1.0999999999999999          0.0000000000000000     
  -1.0899999999999999          0.0000000000000000     
  -1.0800000000000001          0.0000000000000000     
  -1.0699999999999998          0.0000000000000000     
  -1.0600000000000001          0.0000000000000000     
  -1.0500000000000000          0.0000000000000000     
  -1.0400000000000000          0.0000000000000000     
  -1.0300000000000000          0.0000000000000000     
  -1.0200000000000000          0.0000000000000000     
  -1.0100000000000000          0.0000000000000000     
  -1.0000000000000000          0.0000000000000000     
 -0.98999999999999999          0.0000000000000000     
 -0.97999999999999998          0.0000000000000000     
 -0.96999999999999997          0.0000000000000000     
 -0.95999999999999996          0.0000000000000000     
 -0.94999999999999996          0.0000000000000000     
 -0.93999999999999995          0.0000000000000000     
 -0.92999999999999994          0.0000000000000000     
 -0.91999999999999993          0.0000000000000000     
 -0.90999999999999992          0.0000000000000000     
 -0.89999999999999991          0.0000000000000000     
 -0.88999999999999990          0.0000000000000000     
 -0.87999999999999989          0.0000000000000000     
 -0.86999999999999988          0.0000000000000000     
 -0.85999999999999988          0.0000000000000000     
 -0.84999999999999987          0.0000000000000000     
 -0.83999999999999986          0.0000000000000000     
 -0.82999999999999996          0.0000000000000000     
 -0.81999999999999995          0.0000000000000000     
 -0.80999999999999994          0.0000000000000000     
 -0.79999999999999993          0.0000000000000000     
 -0.78999999999999992          0.0000000000000000     
 -0.77999999999999992          0.0000000000000000     
 -0.76999999999999991          0.0000000000000000     
 -0.76000000000000001          0.0000000000000000     
 -0.75000000000000000          0.0000000000000000     
 -0.73999999999999999          0.0000000000000000     
 -0.72999999999999998          0.0000000000000000     
 -0.71999999999999997          0.0000000000000000     
 -0.70999999999999996          0.0000000000000000     
 -0.69999999999999996          0.0000000000000000     
 -0.68999999999999995          0.0000000000000000     
 -0.67999999999999994          0.0000000000000000     
 -0.66999999999999993          0.0000000000000000     
 -0.65999999999999992          0.0000000000000000     
 -0.64999999999999991          0.0000000000000000     
 -0.63999999999999990          0.0000000000000000     
 -0.62999999999999989          0.0000000000000000     
 -0.61999999999999988          0.0000000000000000     
 -0.60999999999999988          0.0000000000000000     
 -0.59999999999999998          0.0000000000000000     
 -0.58999999999999997          0.0000000000000000     
 -0.57999999999999996          0.0000000000000000     
 -0.56999999999999995          0.0000000000000000     
 -0.55999999999999994          0.0000000000000000     
 -0.54999999999999993          0.0000000000000000     
 -0.53999999999999992          0.0000000000000000     
 -0.52999999999999992          0.0000000000000000     
 -0.51999999999999991          0.0000000000000000     
 -0.50999999999999990          0.0000000000000000     
 -0.49999999999999989          0.0000000000000000     
 -0.48999999999999988          0.0000000000000000     
 -0.47999999999999987          0.0000000000000000     
 -0.46999999999999997          0.0000000000000000     
 -0.45999999999999996          0.0000000000000000     
 -0.44999999999999996          0.0000000000000000     
 -0.43999999999999995          0.0000000000000000     
 -0.42999999999999994          0.0000000000000000     
 -0.41999999999999993          0.0000000000000000     
 -0.40999999999999992          0.0000000000000000     
 -0.39999999999999991          0.0000000000000000     
 -0.38999999999999990          0.0000000000000000     
 -0.37999999999999989          0.0000000000000000     
 -0.36999999999999988          0.0000000000000000     
 -0.35999999999999988          0.0000000000000000     
 -0.34999999999999987          0.0000000000000000     
 -0.33999999999999986          0.0000000000000000     
 -0.32999999999999985          0.0000000000000000     
 -0.32000000000000006          0.0000000000000000     
 -0.31000000000000005          0.0000000000000000     
 -0.30000000000000004          0.0000000000000000     
 -0.29000000000000004          0.0000000000000000     
 -0.28000000000000003          0.0000000000000000     
 -0.27000000000000002          0.0000000000000000     
 -0.26000000000000001          0.0000000000000000     
 -0.25000000000000000          0.0000000000000000     
 -0.23999999999999999          0.0000000000000000     
 -0.22999999999999998          0.0000000000000000     
 -0.21999999999999997          0.0000000000000000     
 -0.20999999999999996          0.0000000000000000     
 -0.19999999999999996          0.0000000000000000     
 -0.18999999999999995          0.0000000000000000     
 -0.17999999999999994          0.0000000000000000     
 -0.16999999999999993          0.0000000000000000     
 -0.15999999999999992          0.0000000000000000     
 -0.14999999999999991          0.0000000000000000     
 -0.13999999999999990          0.0000000000000000     
 -0.12999999999999989          0.0000000000000000     
 -0.11999999999999988          0.0000000000000000     
 -0.10999999999999988          0.0000000000000000     
  -9.9999999999999867E-002     0.0000000000000000     
  -8.9999999999999858E-002     0.0000000000000000     
  -7.9999999999999849E-002     0.0000000000000000     
  -6.9999999999999840E-002     0.0000000000000000     
  -5.9999999999999831E-002     0.0000000000000000     
  -4.9999999999999822E-002     0.0000000000000000     
  -3.9999999999999813E-002     0.0000000000000000     
  -2.9999999999999805E-002     0.0000000000000000     
  -1.9999999999999796E-002     0.0000000000000000     
  -9.9999999999997868E-003     0.0000000000000000     
   0.0000000000000000          0.0000000000000000     
   1.0000000000000009E-002     0.0000000000000000     
   2.0000000000000018E-002     0.0000000000000000     
   3.0000000000000027E-002    -2.8025969286496341E-045
   4.0000000000000036E-002    -4.6242849322718963E-044
   5.0000000000000044E-002     2.1019476964872256E-044
   6.0000000000000053E-002     5.8854535501642317E-044
   7.0000000000000062E-002    -2.8025969286496341E-045
   8.0000000000000071E-002    -3.1949604986605829E-043
   9.0000000000000080E-002    -3.6573889918877726E-043
  0.10000000000000009          1.5181667562495068E-041
  0.11000000000000010          9.8808357316471501E-041
  0.12000000000000011         -4.0624343130008609E-040
  0.13000000000000012         -6.7336048599799348E-039
  0.14000000000000012          3.2727970231599692E-039
  0.15000000000000013          2.3830696923751959E-037
  0.16000000000000014         -6.2910911160602823E-037
  0.17000000000000015         -6.6341467373811375E-036
  0.18000000000000016          5.9995194065898549E-035
  0.19000000000000017         -3.4470040223169290E-034
  0.20000000000000018          3.4774293058650638E-033
  0.21000000000000019          6.1634790805581005E-033
  0.22000000000000020          1.0383506738745990E-032
  0.23000000000000020          1.5032850647793103E-032
  0.24000000000000021          2.1991737531726704E-032
  0.25000000000000000          3.1941816728121470E-032
  0.26000000000000001          4.5176901580597490E-032
  0.27000000000000002          6.3204897140606396E-032
  0.28000000000000003          8.8075289563750354E-032
  0.29000000000000004          1.2166880222041985E-031
  0.30000000000000004          1.6704772719888554E-031
  0.31000000000000005          2.2814843067680250E-031
  0.32000000000000006          3.1028732095463469E-031
  0.33000000000000007          4.2071093279206575E-031
  0.34000000000000008          5.6847268858025877E-031
  0.35000000000000009          7.6457711974375869E-031
  0.36000000000000010          1.0244865849337338E-030
  0.37000000000000011          1.3731323789356442E-030
  0.38000000000000012          1.8376883106179006E-030
  0.39000000000000012          2.4406179829851689E-030
  0.40000000000000013          3.2340659492817335E-030
  0.41000000000000014          4.3008061958732888E-030
  0.42000000000000015          5.6884861167365174E-030
  0.43000000000000016          7.4840870276175768E-030
  0.44000000000000017          9.8655046700670857E-030
  0.45000000000000018          1.2956316038040097E-029
  0.46000000000000019          1.6970868858866680E-029
  0.47000000000000020          2.2210191249069253E-029
  0.48000000000000020          2.8944861319506530E-029
  0.49000000000000021          3.7737983370098113E-029
  0.50000000000000022          4.9017080746577050E-029
  0.51000000000000023          6.3498530175148016E-029
  0.52000000000000024          8.2272615643656315E-029
  0.53000000000000025          1.0609993804465462E-028
  0.54000000000000026          1.3678555114439555E-028
  0.55000000000000027          1.7584811690787029E-028
  0.55999999999999983          2.2555762062696870E-028
  0.57000000000000006          2.8888308794102029E-028
  0.57999999999999985          3.6892367716828440E-028
  0.59000000000000008          4.7052095952183179E-028
  0.59999999999999987          5.9842740788068102E-028
  0.61000000000000010          7.5991634482805909E-028
  0.61999999999999988          9.6252682313126983E-028
  0.63000000000000012          1.2169971540847359E-027
  0.63999999999999990          1.5351004029937508E-027
  0.65000000000000013          1.9326023286795654E-027
  0.65999999999999992          2.4276470208517549E-027
  0.67000000000000015          3.0431959940862870E-027
  0.67999999999999994          3.8066070832431826E-027
  0.69000000000000017          4.7515249362999255E-027
  0.69999999999999996          5.9182918152086007E-027
  0.71000000000000019          7.3559569186068735E-027
  0.71999999999999997          9.1233666507595070E-027
  0.73000000000000020          1.1291278137079333E-026
  0.73999999999999999          1.3944361420897436E-026
  0.75000000000000022          1.7184151528881911E-026
  0.76000000000000001          2.1131075319711336E-026
  0.77000000000000024          2.5929121479003924E-026
  0.78000000000000003          3.1747710212107531E-026
  0.79000000000000026          3.8788907007299354E-026
  0.80000000000000004          4.7288642904998697E-026
  0.81000000000000028          5.7527453483136870E-026
  0.82000000000000006          6.9830121404559516E-026
  0.83000000000000029          8.4581512183401335E-026
  0.84000000000000008          1.0222519367850195E-025
  0.85000000000000031          1.2328076638141749E-025
  0.86000000000000010          1.4834814052164105E-025
  0.87000000000000033          1.7812379399682130E-025
  0.88000000000000012          2.1340533913784652E-025
  0.88999999999999990          2.5511438734914447E-025
  0.90000000000000013          3.0430200950526063E-025
  0.90999999999999992          3.6217531070260287E-025
  0.92000000000000015          4.3009899565530026E-025
  0.92999999999999994          5.0962692313141188E-025
  0.94000000000000017          6.0252195073507383E-025
  0.94999999999999996          7.1075332180475061E-025
  0.96000000000000019          8.3655070238524285E-025
  0.96999999999999997          9.8241315452048414E-025
  0.98000000000000020          1.1511023816320401E-024
  0.98999999999999999          1.3457115073292823E-024
   1.0000000000000002          1.5696559049013651E-024
   1.0100000000000000          1.8267085974503474E-024
   1.0200000000000002          2.1210016383977770E-024
   1.0300000000000000          2.4570737389618429E-024
   1.0400000000000003          2.8398475884063505E-024
   1.0500000000000000          3.2746825105061451E-024
   1.0600000000000003          3.7673050437874523E-024
   1.0700000000000001          4.3239742078875220E-024
   1.0800000000000003          4.9512819217456071E-024
   1.0900000000000001          5.6562640357753739E-024
   1.1000000000000003          6.4463050769105964E-024
   1.1100000000000001          7.3293027261038946E-024
   1.1200000000000003          8.3133404410510682E-024
   1.1300000000000001          9.4068673164774870E-024
   1.1400000000000003          1.0618522957017131E-023
   1.1500000000000001          1.1957078707075154E-023
   1.1600000000000004          1.3431402940948049E-023
   1.1700000000000002          1.5050314334695283E-023
   1.1800000000000004          1.6822575555252049E-023
   1.1900000000000002          1.8756475953010412E-023
   1.2000000000000000          2.0859913603353443E-023
   1.2100000000000002          2.3140379529437122E-023
   1.2200000000000000          2.5604220906104856E-023
   1.2299999999999998          2.8257268993168039E-023
   1.2400000000000000          3.1103573802514076E-023
   1.2500000000000002          3.4146279733711178E-023
   1.2600000000000000          3.7385967388385588E-023
   1.2699999999999998          4.0822725118958689E-023
   1.2800000000000000          4.4454142166504128E-023
   1.2900000000000003          4.8274210566367740E-023
   1.3000000000000000          5.2275155305467668E-023
   1.3099999999999998          5.6446336227914290E-023
   1.3200000000000001          6.0773989288633310E-023
   1.3300000000000003          6.5241094024733680E-023
   1.3400000000000001          6.9826313326450981E-023
   1.3499999999999999          7.4506132827922386E-023
   1.3600000000000001          7.9251541380497487E-023
   1.3700000000000003          8.4030751045139498E-023
   1.3800000000000001          8.8808300946436924E-023
   1.3899999999999999          9.3544672308481813E-023
   1.4000000000000001          9.8194622380637930E-023
   1.4100000000000004          1.0271066173641097E-022
   1.4200000000000002          1.0704302271901235E-022
   1.4299999999999999          1.1113602437030795E-022
   1.4400000000000002          1.1493588530922342E-022
   1.4500000000000004          1.1838007726496732E-022
   1.4600000000000002          1.2140807882889111E-022
   1.4700000000000000          1.2395709667293917E-022
   1.4800000000000002          1.2596517050617185E-022
   1.4900000000000004          1.2736938078278870E-022
   1.5000000000000002          1.2810289520689940E-022
   1.5100000000000000          1.2810974883044396E-022
   1.5200000000000002          1.2733431749327343E-022
   1.5300000000000005          1.2571377000200877E-022
   1.5400000000000003          1.2319713963128546E-022
   1.5500000000000000          1.1974743196009225E-022
   1.5600000000000003          1.1532313397215279E-022
   1.5700000000000005          1.0988983871022497E-022
   1.5800000000000003          1.0342567895001605E-022
   1.5900000000000001          9.5915678956101328E-023
   1.6000000000000003          8.7354619624731852E-023
   1.6100000000000005          7.7745605912430576E-023
   1.6200000000000003          6.7114550322212198E-023
   1.6300000000000001          5.5485282764301636E-023
   1.6400000000000003          4.2892992745958987E-023
   1.6500000000000006          2.9387665649582677E-023
   1.6600000000000004          1.5039358634443573E-023
   1.6700000000000002         -7.5430811964499106E-026
   1.6800000000000004         -1.5877124182622856E-023
   1.6899999999999997         -3.2269832075680062E-023
   1.7000000000000000         -4.9150631876624664E-023
   1.7099999999999997         -6.6388766734972658E-023
   1.7200000000000000         -8.3865292203434822E-023
   1.7299999999999998         -1.0144943723203086E-022
   1.7400000000000000         -1.1900802316729773E-022
   1.7499999999999998         -1.3640081578383612E-022
   1.7600000000000000         -1.5346040617578363E-022
   1.7699999999999998         -1.7005728231516471E-022
   1.7800000000000000         -1.8605534360772337E-022
   1.7899999999999998         -2.0130805125170578E-022
   1.8000000000000000         -2.1567171896639135E-022
   1.8099999999999998         -2.2901116754706141E-022
   1.8200000000000001         -2.4122089158080807E-022
   1.8299999999999998         -2.5217626366638091E-022
   1.8400000000000001         -2.6176568207379650E-022
   1.8499999999999999         -2.6989887587194858E-022
   1.8600000000000001         -2.7649875126229172E-022
   1.8699999999999999         -2.8149437387222844E-022
   1.8800000000000001         -2.8485095809128212E-022
   1.8899999999999999         -2.8653129492827529E-022
   1.9000000000000001         -2.8650862622130286E-022
   1.9099999999999999         -2.8478769775757064E-022
   1.9200000000000002         -2.8139463661025954E-022
   1.9299999999999999         -2.7636130013816601E-022
   1.9400000000000002         -2.6973375781815496E-022
   1.9500000000000000         -2.6157509327909510E-022
   1.9600000000000002         -2.5196810536159843E-022
   1.9700000000000000         -2.4099531522723831E-022
   1.9800000000000002         -2.2877668022070627E-022
   1.9900000000000000         -2.1542211075420494E-022
   2.0000000000000000         -2.0105112241031892E-022
   2.0099999999999998         -1.8579663509613433E-022
   2.0200000000000005         -1.6980776245539968E-022
   2.0300000000000002         -1.5322292748887590E-022
   2.0400000000000000         -1.3617136454549991E-022
   2.0499999999999998         -1.1881183030472565E-022
   2.0600000000000005         -1.0129695988538250E-022
   2.0700000000000003         -8.3751588947999887E-023
   2.0800000000000001         -6.6317718766404833E-023
   2.0899999999999999         -4.9128032589411892E-023
   2.1000000000000005         -3.2311155765339159E-023
   2.1100000000000003         -1.5982643795027029E-023
   2.1200000000000001         -2.3494242514173798E-025
   2.1299999999999999          1.4822963044088777E-023
   2.1400000000000006          2.9102397769036655E-023
   2.1500000000000004          4.2525582357074112E-023
   2.1600000000000001          5.5040119089154556E-023
   2.1699999999999999          6.6603431564501400E-023
   2.1800000000000006          7.7158895347337880E-023
   2.1900000000000004          8.6686454438009655E-023
   2.2000000000000002          9.5175298286671579E-023
   2.2100000000000000          1.0262574243768574E-022
   2.2200000000000006          1.0903022013724925E-022
   2.2300000000000004          1.1439383058225347E-022
   2.2400000000000002          1.1876316074231713E-022
   2.2500000000000000          1.2216955048348284E-022
   2.2600000000000007          1.2463157905779038E-022
   2.2700000000000005          1.2620596871976875E-022
   2.2800000000000002          1.2694526391659291E-022
   2.2900000000000000          1.2691678919335806E-022
   2.3000000000000007          1.2615524180811942E-022
   2.3100000000000005          1.2473568345373059E-022
   2.3199999999999994          1.2271667916379517E-022
   2.3300000000000001          1.2017017305286933E-022
   2.3399999999999999          1.1715162519803371E-022
   2.3499999999999996          1.1371186348513353E-022
   2.3599999999999994          1.0991957561090818E-022
   2.3700000000000001          1.0585370446386494E-022
   2.3799999999999999          1.0155192604083717E-022
   2.3899999999999997          9.7066229430922553E-023
   2.3999999999999995          9.2448969754678795E-023
   2.4100000000000001          8.7749359310817205E-023
   2.4199999999999999          8.3010829625335631E-023
   2.4299999999999997          7.8263786552964912E-023
   2.4399999999999995          7.3554135487501669E-023
   2.4500000000000002          6.8912036159074312E-023
   2.4600000000000000          6.4357071250794047E-023
   2.4699999999999998          5.9921432598481133E-023
   2.4799999999999995          5.5623844604581896E-023
   2.4900000000000002          5.1486934955301696E-023
   2.5000000000000000          4.7510514324023279E-023
   2.5099999999999998          4.3698107341271173E-023
   2.5199999999999996          4.0062714434763420E-023
   2.5300000000000002          3.6622447850883895E-023
   2.5400000000000000          3.3377449584595538E-023
   2.5499999999999998          3.0304931022068324E-023
   2.5599999999999996          2.7421019635648590E-023
   2.5700000000000003          2.4728722563107041E-023
   2.5800000000000001          2.2214435109272234E-023
   2.5899999999999999          1.9860171245505130E-023
   2.5999999999999996          1.7664376915822443E-023
   2.6100000000000003          1.5639538210632013E-023
   2.6200000000000001          1.3764082939619665E-023
   2.6299999999999999          1.2026147423631780E-023
   2.6399999999999997          1.0410667574822257E-023
   2.6500000000000004          8.9270537149294797E-024
   2.6600000000000001          7.5606275090899989E-024
   2.6699999999999999          6.3017916755308962E-024
   2.6799999999999997          5.1324406731859916E-024
   2.6900000000000004          4.0497144868434063E-024
   2.7000000000000002          3.0536158775163086E-024
   2.7100000000000000          2.1410710486875048E-024
   2.7199999999999998          1.2908133950359811E-024
   2.7300000000000004          5.0830094655734851E-025
   2.7400000000000002         -2.0697057608205544E-025
   2.7500000000000000         -8.7027411165298850E-025
   2.7599999999999998         -1.4848052370748878E-024
   2.7700000000000005         -2.0580136589138212E-024
   2.7800000000000002         -2.5596098794224700E-024
   2.7900000000000000         -3.0385997129702003E-024
   2.7999999999999998         -3.4763743252333010E-024
   2.8099999999999996         -3.8675341605307606E-024
   2.8200000000000003         -4.2121362140629813E-024
   2.8300000000000001         -4.5292575091009228E-024
   2.8399999999999999         -4.8101030354122761E-024
   2.8500000000000005         -5.0478692621199626E-024
   2.8600000000000003         -5.2399655700112364E-024
   2.8700000000000001         -5.3930440286693737E-024
   2.8799999999999999         -5.5087991113187893E-024
   2.8899999999999997         -5.5808469610839822E-024
   2.9000000000000004         -5.6037519318975269E-024
   2.9100000000000001         -5.5813991637176369E-024
   2.9199999999999999         -5.5136407451245833E-024
   2.9300000000000006         -5.4156512044911975E-024
   2.9400000000000004         -5.2597908278507982E-024
   2.9500000000000002         -5.0494540836785516E-024
   2.9600000000000000         -4.7986014434141538E-024
   2.9699999999999998         -4.5197955169732494E-024
   2.9799999999999995         -4.1806661859709995E-024
   2.9899999999999993         -3.7919151374476322E-024
   3.0000000000000000         -3.3645158210252246E-024
   3.0099999999999998         -2.9020330991344703E-024
   3.0199999999999996         -2.3891192884338419E-024
   3.0299999999999994         -1.8405742083661908E-024
   3.0400000000000000         -1.2651256187716561E-024
   3.0499999999999998         -6.5450748995868589E-025
   3.0599999999999996         -2.7345817057167709E-027
   3.0699999999999994          6.6459633068317057E-025
   3.0800000000000001          1.3478874815287213E-024
   3.0899999999999999          2.0486999726363293E-024
   3.0999999999999996          2.7504785225299936E-024
   3.1099999999999994          3.4625751758487225E-024
   3.1200000000000001          4.1738827710470040E-024
   3.1299999999999999          4.8828849202497771E-024
   3.1399999999999997          5.5746551918389024E-024
   3.1499999999999995          6.2583605439635008E-024
   3.1600000000000001          6.9197466544966810E-024
   3.1699999999999999          7.5373892445439983E-024
   3.1799999999999997          8.1293717670662865E-024
   3.1899999999999995          8.7059935900421112E-024
   3.2000000000000002          9.2467790398155558E-024
   3.2100000000000000          9.7089939434289875E-024
   3.2199999999999998          1.0129405529952947E-023
   3.2299999999999995          1.0507558626645123E-023
   3.2400000000000002          1.0834666111882257E-023
   3.2500000000000000          1.1099687088434877E-023
   3.2599999999999998          1.1317083743278399E-023
   3.2699999999999996          1.1468951300447022E-023
   3.2800000000000002          1.1552745683521409E-023
   3.2900000000000000          1.1574494578678352E-023
   3.2999999999999998          1.1542610398611129E-023
   3.3099999999999996          1.1448637343276676E-023
   3.3200000000000003          1.1294599629757790E-023
   3.3300000000000001          1.1093106410763523E-023
   3.3399999999999999          1.0834587225791735E-023
   3.3499999999999996          1.0527395322967811E-023
   3.3600000000000003          1.0181713318856342E-023
   3.3700000000000001          9.7838899754924809E-024
   3.3799999999999999          9.3399474570266834E-024
   3.3899999999999997          8.8714563760513132E-024
   3.4000000000000004          8.3816297630333356E-024
   3.4100000000000001          7.8497907847860025E-024
   3.4199999999999999          7.2881226091295473E-024
   3.4299999999999997          6.7260663139077234E-024
   3.4400000000000004          6.1463931769505038E-024
   3.4500000000000002          5.5530139761955218E-024
   3.4600000000000000          4.9542922149599305E-024
   3.4699999999999998          4.3658437892930324E-024
   3.4800000000000004          3.7713944987201181E-024
   3.4900000000000002          3.1853347438742292E-024
   3.5000000000000000          2.6101472672393226E-024
   3.5099999999999998          2.0435960425795494E-024
   3.5200000000000005          1.4966169500163752E-024
   3.5300000000000002          9.6543055695288620E-025
   3.5400000000000000          4.5655310098524085E-025
   3.5499999999999998         -3.5779991218072199E-026
   3.5600000000000005         -5.0683617976777282E-025
   3.5700000000000003         -9.5007784462308802E-025
   3.5800000000000001         -1.3790597146289822E-024
   3.5899999999999999         -1.7890584358116379E-024
   3.5999999999999996         -2.1654653888901067E-024
   3.6099999999999994         -2.5208207998518476E-024
   3.6200000000000001         -2.8659101722082686E-024
   3.6299999999999999         -3.1821126415068540E-024
   3.6399999999999997         -3.4697798424961060E-024
   3.6499999999999995         -3.7558354006559914E-024
   3.6599999999999993         -4.0223122200091966E-024
   3.6699999999999999         -4.2591763842717628E-024
   3.6799999999999997         -4.4793305024094850E-024
   3.6899999999999995         -4.6956160466680033E-024
   3.7000000000000002         -4.9091642435854047E-024
   3.7100000000000000         -5.1044096842103208E-024
   3.7199999999999998         -5.2935627520642150E-024
   3.7299999999999995         -5.4636163141113507E-024
   3.7399999999999993         -5.6284211901255983E-024
   3.7500000000000000         -5.8024904486107616E-024
   3.7599999999999998         -5.9556505543725893E-024
   3.7699999999999996         -6.1022366877807577E-024
   3.7800000000000002         -6.2419254158641262E-024
   3.7900000000000000         -6.3833598931307488E-024
   3.7999999999999998         -6.5141680195735918E-024
   3.8099999999999996         -6.6347998403390837E-024
   3.8199999999999994         -6.7584435320407094E-024
   3.8300000000000001         -6.8643157652695162E-024
   3.8399999999999999         -6.9533087417093089E-024
   3.8499999999999996         -7.0398704488392106E-024
   3.8600000000000003         -7.1220050685690119E-024
   3.8700000000000001         -7.1816121874284167E-024
   3.8799999999999999         -7.2172852664234161E-024
   3.8899999999999997         -7.2448046791020511E-024
   3.8999999999999995         -7.2513467025890490E-024
   3.9100000000000001         -7.2234233931269408E-024
   3.9199999999999999         -7.1846185363382140E-024
   3.9299999999999997         -7.1120882981294785E-024
   3.9400000000000004         -7.0162282875097368E-024
   3.9500000000000002         -6.8883160694499602E-024
   3.9600000000000000         -6.7341103285582621E-024
   3.9699999999999998         -6.5250819101973245E-024
   3.9799999999999995         -6.2937732988597772E-024
   3.9900000000000002         -6.0366997014968065E-024
   4.0000000000000000         -5.7394482349395718E-024
   4.0099999999999998         -5.3904526205957227E-024
   4.0200000000000005         -5.0157235746626589E-024
   4.0300000000000002         -4.6184204850657907E-024
   4.0400000000000000         -4.1692426912024940E-024
   4.0499999999999998         -3.6838124000093131E-024
   4.0599999999999996         -3.1716894223661687E-024
   4.0700000000000003         -2.6318022879485446E-024
   4.0800000000000001         -2.0471824014699104E-024
   4.0899999999999999         -1.4497946040250478E-024
   4.1000000000000005         -8.2430989841512184E-025
   4.1100000000000003         -1.8273744700100638E-025
   4.1200000000000001          4.7506889902594241E-025
   4.1299999999999999          1.1372750304700999E-024
   4.1399999999999997          1.8095045271836087E-024
   4.1500000000000004          2.4919384327442170E-024
   4.1600000000000001          3.1699789747084233E-024
   4.1699999999999999          3.8429280111751068E-024
   4.1800000000000006          4.5082272662286359E-024
   4.1900000000000004          5.1380790565060588E-024
   4.2000000000000002          5.7543687501009220E-024
   4.2100000000000000          6.3475838677876181E-024
   4.2199999999999998          6.9261372166898764E-024
   4.2300000000000004          7.4400296093434315E-024
   4.2400000000000002          7.9210777782081097E-024